<LesHouchesEvents version="1.0">
<!--
File generated with charybdis2-1.0.2 
http://projects.hepforge.org/charybdis2/

 Below are the values of the switches that were used in the run. You can copy/paste this block into a charybdis2.init file and rerun using the version above. Please do not forget to check the instructions in the header of the charybdis2.init file provided with the distribution. For your future reference you may want to copy that header and place it  as header of your new charybdis2.init file, together with any other information you may find relevant.

**********************************************************************
**********************  START OF INPUT OPTIONS  **********************
**********************************************************************

----------------------------
----- Beams & Energies -----
----------------------------
IDBMUP(1): (default is 2212)
 2212
IDBMUP(2): (default is 2212)
 2212
EBMUP(1): (default is 7000.0)
  6500.
EBMUP(2): (default is 7000.0)
  6500.
MINMSS: (default is 5000.0)
  1000.00003
MAXMSS: (default is 14000.0)
  13000.
PDFGUP(1): (Default depends on specific implementation)
 1
PDFGUP(2): (Default depends on specific implementation)
 1
LHAPDFSET: (default is 10000 -- needs to be set if you're using LHAPDF)
 21000
-----------------------
----- MC & OUTPUT -----
-----------------------
CHNMAXEV: (default is 100)
 100
NRN(1): (default is 245234)
 93667
NRN(2): (default is 42542)
 36950
LHEFILENAME: (default is lhouches -- must be exactly 8 characters long !!!)
 lhouches
HISFILENAME: (default is histfile -- must be exactly 8 characters long !!!)
 histfile
--------------------------------------------
----- Model parameters and conventions -----
--------------------------------------------
TOTDIM: (default is 6)
 11
MPLNCK: (default is 1000.0)
  853.148198
YRCSEC: (default is T -- means .TRUE.)
 F
MJLOST: (default is T -- means .TRUE.)
 F
CVBIAS: (default is F -- means .FALSE.)
 F
FMLOST: (default is 0.99)
  0.99
GTSCA: (default is F)
 T
DGSB: (default is F)
 F
DGGS: (default is 0.3)
  0.3
DGMS: (default is 1000.0)
  1000.
--------------------------------
----- Evaporation switches -----
--------------------------------
BHSPIN: (default is T)
 F
BHJVAR: (default is T)
 T
BHANIS: (default is T)
 T
GRYBDY: (default is T)
 F
TIMVAR: (default is T)
 T
MSSDEC: (default is 3)
 3
RECOIL: (default is 2)
 2
THWMAX: (default is 1000.0)
  1000.
DGTENSION: (default is 1000.0)
  1000.
---------------------------------------------------
----- Switches for termination of evaporation -----
---------------------------------------------------
NBODYAVERAGE: (default is T)
 F
KINCUT: (default is F)
 F
SKIP2REMNANT: (default is F)
 F
----------------------------------
----- Remnant model switches -----
----------------------------------
NBODY: (default is 2)
 0
NBODYPHASE: (default is F)
 F
NBODYVAR: (default is F)
 F
RMBOIL: (default is F)
 F
RMSTAB: (default is F)
 T
RMMINM: (default is 100.0)
  1000.
**********************************************************************
*****************************END*OF*INPUT*****************************
**********************************************************************
-->
<SLHA>
BLOCK QNUMBERS 50 # stableremnant0
      1              0
      2              0
      3              1
      4              0
BLOCK QNUMBERS 51 # stableremnant+1 stableremnant-1
      1              3
      2              0
      3              1
      4              1
BLOCK MASS
      50      1000.0
      51      1000.0
DECAY 50 0.0
DECAY 51 0.0
</SLHA>
<init>
  2212  2212    0.65E+04    0.65E+04     1     1     1     1     1     1
    0.12E+06    0.15E+04    0.10E+01     1
</init>
<event>
    12     1  0.1000000000E+01  0.3410555442E+03  0.7299270015E-02  0.1180000007E+00
     1    -1     0     0   501     0  0.0000000000E+00  0.0000000000E+00  0.2862734082E+04  0.2862734100E+04  0.3200000000E+00  0.  9.
     2    -1     0     0   506     0  0.0000000000E+00  0.0000000000E+00 -0.2768569216E+03  0.2768571066E+03  0.3200000000E+00  0.  9.
   -11     1     1     2     0     0 -0.3021750239E+03 -0.5469874078E+02  0.7041701138E+03  0.7682169267E+03  0.5110000000E-03  0.  9.
     3     1     1     2   500     0 -0.1148020480E+03 -0.3416937890E+02  0.1013872380E+03  0.1569288970E+03  0.5000000000E+00  0.  9.
    12     1     1     2     0     0  0.6252958461E+02 -0.1363822677E+03  0.1788445253E+03  0.2334425757E+03  0.0000000000E+00  0.  9.
    22     1     1     2     0     0  0.1787381770E+01 -0.2070171534E+01  0.4011134250E+00  0.2764278522E+01  0.0000000000E+00  0.  9.
    21     1     1     2   501   500  0.5983291312E+02  0.4503981897E+02  0.8578643212E+02  0.1138765767E+03  0.0000000000E+00  0.  9.
    21     1     1     2   504   503 -0.4227171192E+01 -0.1285807067E+01  0.1924379592E+02  0.1974451715E+02  0.0000000000E+00  0.  9.
     3     1     1     2   503     0  0.2742760130E+01 -0.1813604362E+01 -0.4868518992E+01  0.5896131874E+01  0.5000000000E+00  0.  9.
    21     1     1     2   505   504 -0.6915667142E+00  0.5481012005E+00  0.2240019168E+01  0.2407564188E+01  0.0000000000E+00  0.  9.
    21     1     1     2   506   505 -0.1191036235E+01 -0.1055769322E+01  0.1815737591E+01  0.2414563972E+01  0.0000000000E+00  0.  9.
    50     1     1     2     0     0  0.2961942064E+03  0.1858878195E+03  0.1496856704E+04  0.1833899174E+04  0.1000160438E+04  0.  9.
</event>
<event>
    13     1  0.1000000000E+01  0.3180488908E+03  0.7299270015E-02  0.1180000007E+00
     2    -1     0     0   501     0  0.0000000000E+00  0.0000000000E+00  0.1457613144E+04  0.1457613179E+04  0.3200000000E+00  0.  9.
     1    -1     0     0   504     0  0.0000000000E+00  0.0000000000E+00 -0.8374789016E+03  0.8374789627E+03  0.3200000000E+00  0.  9.
     2     1     1     2   500     0  0.1101476876E+03 -0.7452058461E+02  0.6229042075E+02  0.1468537692E+03  0.3200000000E+00  0.  9.
     3     1     1     2   503     0  0.1413984371E+03 -0.2194188117E+02  0.3142962814E+02  0.1465026815E+03  0.5000000000E+00  0.  9.
    -2     1     1     2     0   507 -0.1178946987E+03  0.8886881007E+02 -0.1184677332E+03  0.1892921857E+03  0.3200000000E+00  0.  9.
    24     1     1     2     0     0 -0.1822279533E+03  0.1221467804E+03  0.3912439667E+03  0.4557039399E+03  0.8042000000E+02  0.  9.
    21     1     1     2   501   500  0.1250496984E+03 -0.6476598822E+02 -0.8900221466E+02  0.1665936809E+03  0.0000000000E+00  0.  9.
    22     1     1     2     0     0  0.1389917531E+01 -0.6144469581E+02 -0.1688675863E+02  0.6373809796E+02  0.0000000000E+00  0.  9.
     3     1     1     2   506     0 -0.2022805314E+02 -0.4186879719E+02 -0.1379480468E+02  0.4850481366E+02  0.5000000000E+00  0.  9.
    21     1     1     2   504   503  0.9438046599E+00  0.6799266594E+00 -0.5710141907E+00  0.1295810443E+01  0.0000000000E+00  0.  9.
    22     1     1     2     0     0 -0.7562236545E+00  0.9035079275E+00 -0.2634704399E+01  0.2886151081E+01  0.0000000000E+00  0.  9.
    21     1     1     2   507   506  0.2325140597E+01  0.2775665251E+00  0.1209244437E+01  0.2635449503E+01  0.0000000000E+00  0.  9.
    51     1     1     2     0     0 -0.6014775699E+02  0.5166535547E+02  0.3753182124E+03  0.1071085562E+04  0.1000036729E+04  0.  9.
</event>
<event>
    13     1  0.1000000000E+01  0.3204674638E+03  0.7299270015E-02  0.1180000007E+00
     2    -1     0     0   501     0  0.0000000000E+00  0.0000000000E+00  0.2918867247E+04  0.2918867264E+04  0.3200000000E+00  0.  9.
     1    -1     0     0   507     0  0.0000000000E+00  0.0000000000E+00 -0.3974388183E+03  0.3974389472E+03  0.3200000000E+00  0.  9.
    40     3     1     2     0     0  0.0000000000E+00  0.0000000000E+00  0.0000000000E+00  0.0000000000E+00  0.2154132208E+04  0.  9.
    21     1     1     2   501   500 -0.5669135889E+02 -0.1651990851E+03  0.2117534748E+03  0.2744889469E+03  0.0000000000E+00  0.  9.
    21     1     1     2   504   503 -0.6584812527E+02 -0.3710069736E+02  0.1419010222E+03  0.1607741816E+03  0.0000000000E+00  0.  9.
     6     1     1     2   500     0 -0.1842327435E+03  0.2692218599E+03  0.3034724908E+03  0.4784330217E+03  0.1743000000E+03  0.  9.
    23     1     1     2     0     0  0.2456842003E+03 -0.3920291978E+02  0.2369306071E+03  0.3554559876E+03  0.9118800000E+02  0.  9.
    16     1     1     2     0     0 -0.5480723907E+00 -0.1431505159E+03  0.8090551623E+02  0.1644325793E+03  0.0000000000E+00  0.  9.
     5     1     1     2   503     0  0.2431652756E+01  0.4776219419E+02  0.1270791903E+03  0.1358703914E+03  0.4950000000E+01  0.  9.
    21     1     1     2   505   504  0.5180924051E+01 -0.6507306870E+01  0.7851321777E+01  0.1143810607E+02  0.0000000000E+00  0.  9.
    21     1     1     2   506   505 -0.9035538598E+00 -0.2836563241E+01  0.4816698820E+01  0.5662427758E+01  0.0000000000E+00  0.  9.
    21     1     1     2   507   506  0.1035629997E+01  0.9576544602E+00  0.2516908387E+01  0.2885213923E+01  0.0000000000E+00  0.  9.
    50     1     1     2     0     0  0.5389144679E+02  0.7605537978E+02  0.1404201198E+04  0.1726865355E+04  0.1000796803E+04  0.  9.
</event>
<event>
    15     1  0.1000000000E+01  0.3338312743E+03  0.7299270015E-02  0.1180000007E+00
    21    -1     0     0   500   501  0.0000000000E+00  0.0000000000E+00  0.1224901649E+04  0.1224901649E+04  0.0000000000E+00  0.  9.
    21    -1     0     0   501   502  0.0000000000E+00  0.0000000000E+00 -0.7321067303E+03  0.7321067303E+03  0.0000000000E+00  0.  9.
    40     3     1     2     0     0  0.0000000000E+00  0.0000000000E+00  0.0000000000E+00  0.0000000000E+00  0.1893946928E+04  0.  9.
    13     1     1     2     0     0  0.2211032397E+03 -0.1523231069E+03 -0.1340717088E+03  0.3001069906E+03  0.1056600000E+00  0.  9.
     4     1     1     2   500     0 -0.1455803910E+03  0.1312766029E+03  0.1373743853E+03  0.2393769432E+03  0.1550000000E+01  0.  9.
     2     1     1     2   505     0 -0.8108852219E+02 -0.6815030512E+02  0.1145561382E+03  0.1560225103E+03  0.3200000000E+00  0.  9.
    -4     1     1     2     0   503  0.4516649238E+02  0.4880137472E+02 -0.1730697423E+02  0.6872786964E+02  0.1550000000E+01  0.  9.
    21     1     1     2   503   502  0.3867347294E+02  0.1927097311E+02  0.5146076969E+02  0.6719537730E+02  0.0000000000E+00  0.  9.
    21     1     1     2   506   505 -0.3112356831E+02 -0.2284602069E+02  0.2403886583E+01  0.3868327593E+02  0.0000000000E+00  0.  9.
   -15     1     1     2     0     0 -0.4138790961E+01 -0.1154123579E+02 -0.4466447266E+00  0.1239706781E+02  0.1777100000E+01  0.  9.
    -4     1     1     2     0   509 -0.1917876073E+01 -0.9510067213E+01  0.5749169873E+01  0.1138310508E+02  0.1550000000E+01  0.  9.
    21     1     1     2   507   506  0.1763821637E+01  0.2160802370E+00  0.4532034321E+01  0.4867965954E+01  0.0000000000E+00  0.  9.
    21     1     1     2   508   507  0.2718441435E+00 -0.2196630221E+01 -0.2531889042E+00  0.2227821400E+01  0.0000000000E+00  0.  9.
    21     1     1     2   509   508  0.1228458892E-01 -0.1508208040E+00 -0.1183535687E+00  0.1921077648E+00  0.0000000000E+00  0.  9.
    50     1     1     2     0     0 -0.4314200686E+02  0.6715315582E+02  0.3289154049E+03  0.1055827344E+04  0.1000107623E+04  0.  9.
</event>
<event>
     7     1  0.1000000000E+01  0.4977398894E+03  0.7299270015E-02  0.1180000007E+00
    21    -1     0     0   500   501  0.0000000000E+00  0.0000000000E+00  0.1898393989E+04  0.1898393989E+04  0.0000000000E+00  0.  9.
    21    -1     0     0   501   502  0.0000000000E+00  0.0000000000E+00 -0.1365847510E+03  0.1365847510E+03  0.0000000000E+00  0.  9.
    40     3     1     2     0     0  0.0000000000E+00  0.0000000000E+00  0.0000000000E+00  0.0000000000E+00  0.1018413806E+04  0.  9.
    21     1     1     2   503   502 -0.6473664961E+01 -0.3610629132E+01  0.7200652672E+01  0.1033413662E+02  0.0000000000E+00  0.  9.
    -1     1     1     2     0   503  0.2065674575E+01 -0.3474082084E+01  0.1117557428E+02  0.1188831856E+02  0.3200000000E+00  0.  9.
     1     1     1     2   500     0 -0.3292177136E+01  0.3072361317E+01  0.3859060451E+01  0.5939072480E+01  0.3200000000E+00  0.  9.
    50     1     1     2     0     0  0.7700167521E+01  0.4012349899E+01  0.1739573950E+04  0.2006817212E+04  0.1000561044E+04  0.  9.
</event>
<event>
    18     1  0.1000000000E+01  0.2982541599E+03  0.7299270015E-02  0.1180000007E+00
    21    -1     0     0   500   501  0.0000000000E+00  0.0000000000E+00  0.1171064522E+04  0.1171064522E+04  0.0000000000E+00  0.  9.
     2    -1     0     0   502     0  0.0000000000E+00  0.0000000000E+00 -0.1675065276E+04  0.1675065307E+04  0.3200000000E+00  0.  9.
    40     3     1     2     0     0  0.0000000000E+00  0.0000000000E+00  0.0000000000E+00  0.0000000000E+00  0.2801149450E+04  0.  9.
   -11     1     1     2     0     0  0.1077007979E+03 -0.1008581023E+03 -0.6352808231E+02  0.1606475518E+03  0.5110000000E-03  0.  9.
    11     1     1     2     0     0 -0.1163904663E+03  0.1576220078E+03 -0.1384533520E+03  0.2399182541E+03  0.5110000000E-03  0.  9.
     6     1     1     2   500     0  0.2271206994E+03 -0.1338822170E+03  0.1240520845E+03  0.3395256541E+03  0.1743000000E+03  0.  9.
   -11     1     1     2     0     0  0.8569317946E+02  0.1114935081E+03 -0.5196485407E+01  0.1407164767E+03  0.5110000000E-03  0.  9.
    23     1     1     2     0     0 -0.1517957276E+03 -0.1318725150E+03  0.1022911869E+03  0.2433331901E+03  0.9118800000E+02  0.  9.
    -2     1     1     2     0   505  0.9958482564E+02 -0.3126629406E+02 -0.1335620166E+03  0.1695099800E+03  0.3200000000E+00  0.  9.
     3     1     1     2   504     0 -0.1424317824E+01 -0.1286520640E+03 -0.6517090042E+02  0.1442250967E+03  0.5000000000E+00  0.  9.
    24     1     1     2     0     0 -0.9952588959E+02  0.3453505131E+02  0.7049944845E+02  0.1501186900E+03  0.8042000000E+02  0.  9.
   -24     1     1     2     0     0 -0.4714232367E+02  0.6133073791E+02 -0.3992434679E+02  0.1185123958E+03  0.8042000000E+02  0.  9.
   -15     1     1     2     0     0 -0.1644389017E+02  0.1796984321E+02 -0.5852624150E+01  0.2511430036E+02  0.1777100000E+01  0.  9.
    11     1     1     2     0     0 -0.1032023395E+02  0.2547454703E+02  0.5437689537E+01  0.2801835546E+02  0.5110000000E-03  0.  9.
    16     1     1     2     0     0  0.5793735106E+01  0.1151917310E+02 -0.1569041387E+02  0.2030881097E+02  0.0000000000E+00  0.  9.
    21     1     1     2   502   501 -0.1476205892E+01 -0.1594504518E+00 -0.7741819059E+00  0.1674504674E+01  0.0000000000E+00  0.  9.
    21     1     1     2   505   504  0.5357057994E-01 -0.1715829837E+00 -0.7216208316E-01  0.1936953628E+00  0.0000000000E+00  0.  9.
    50     1     1     2     0     0 -0.8142775307E+02  0.1069173574E+03 -0.3380565981E+03  0.1064312872E+04  0.1000208891E+04  0.  9.
</event>
<event>
    12     1  0.1000000000E+01  0.3334190093E+03  0.7299270015E-02  0.1180000007E+00
     2    -1     0     0   500     0  0.0000000000E+00  0.0000000000E+00  0.2645570126E+04  0.2645570146E+04  0.3200000000E+00  0.  9.
     2    -1     0     0   504     0  0.0000000000E+00  0.0000000000E+00 -0.3414716421E+03  0.3414717921E+03  0.3200000000E+00  0.  9.
    40     3     1     2     0     0  0.0000000000E+00  0.0000000000E+00  0.0000000000E+00  0.0000000000E+00  0.1900933905E+04  0.  9.
   -15     1     1     2     0     0  0.9807599059E+02  0.9149700241E+02 -0.2038130753E+02  0.1356803492E+03  0.1777100000E+01  0.  9.
    12     1     1     2     0     0 -0.6490977551E+02  0.1221756273E+03  0.4217948508E+03  0.4439043354E+03  0.0000000000E+00  0.  9.
     2     1     1     2   500     0 -0.5419030397E+02 -0.1639300899E+02  0.1757537700E+02  0.5928166719E+02  0.3200000000E+00  0.  9.
    11     1     1     2     0     0  0.9508848826E+02 -0.2193807515E+02  0.1774707484E+03  0.2025313958E+03  0.5110000000E-03  0.  9.
    22     1     1     2     0     0 -0.6669385392E+02 -0.1537116703E+03  0.3095120544E+03  0.3519560477E+03  0.0000000000E+00  0.  9.
     2     1     1     2   502     0  0.9920277057E+01 -0.3762879713E+02  0.6225554610E+02  0.7341793848E+02  0.3200000000E+00  0.  9.
    21     1     1     2   503   502  0.4381623648E+02 -0.4380562681E+02  0.5887185673E+02  0.8546748524E+02  0.0000000000E+00  0.  9.
    21     1     1     2   504   503  0.1280593865E+02 -0.8008160180E+01  0.1642039900E+02  0.2231036076E+02  0.0000000000E+00  0.  9.
    50     1     1     2     0     0 -0.7391299763E+02  0.6781270884E+02  0.1260578959E+04  0.1612492358E+04  0.1000505171E+04  0.  9.
</event>
<event>
    10     1  0.1000000000E+01  0.4008041434E+03  0.7299270015E-02  0.1180000007E+00
     5    -1     0     0   500     0  0.0000000000E+00  0.0000000000E+00  0.3044321634E+03  0.3044724037E+03  0.4950000000E+01  0.  9.
     2    -1     0     0   502     0  0.0000000000E+00  0.0000000000E+00 -0.1291008567E+04  0.1291008607E+04  0.3200000000E+00  0.  9.
    40     3     1     2     0     0  0.0000000000E+00  0.0000000000E+00  0.0000000000E+00  0.0000000000E+00  0.1253884626E+04  0.  9.
    -5     1     1     2     0   505 -0.4085953695E+02  0.8519176572E+02  0.4907508865E+01  0.9474030214E+02  0.4950000000E+01  0.  9.
     4     1     1     2   500     0 -0.5000121769E+01  0.4320146038E+02 -0.5922118809E+02  0.7349094512E+02  0.1550000000E+01  0.  9.
    15     1     1     2     0     0 -0.4244173911E+02 -0.1546773352E+02 -0.4060055567E+02  0.6076277811E+02  0.1777100000E+01  0.  9.
     4     1     1     2   502     0  0.1625028700E+01  0.6756502720E+00  0.3879527505E+01  0.4533260993E+01  0.1550000000E+01  0.  9.
    21     1     1     2   505   504 -0.3925042257E+01  0.1504069053E+01 -0.5764341464E+01  0.7134130147E+01  0.0000000000E+00  0.  9.
     3     1     1     2   504     0 -0.6215889682E+01 -0.3762925760E+01 -0.1856072715E+02  0.1993859291E+02  0.5000000000E+00  0.  9.
    50     1     1     2     0     0  0.9681730108E+02 -0.1113422861E+03 -0.8712166278E+03  0.1334881001E+04  0.1000558934E+04  0.  9.
</event>
<event>
    17     1  0.1000000000E+01  0.2876641698E+03  0.7299270015E-02  0.1180000007E+00
     2    -1     0     0   501     0  0.0000000000E+00  0.0000000000E+00  0.2951414094E+04  0.2951414112E+04  0.3200000000E+00  0.  9.
     2    -1     0     0   504     0  0.0000000000E+00  0.0000000000E+00 -0.8980045054E+03  0.8980045625E+03  0.3200000000E+00  0.  9.
    40     3     1     2     0     0  0.0000000000E+00  0.0000000000E+00  0.0000000000E+00  0.0000000000E+00  0.3255999568E+04  0.  9.
     2     1     1     2   500     0 -0.1468441058E+03  0.1257914792E+02  0.4159275482E+02  0.1531387802E+03  0.3200000000E+00  0.  9.
     4     1     1     2   503     0  0.3542001208E+03 -0.1218661395E+03  0.4097193252E+03  0.5551408915E+03  0.1550000000E+01  0.  9.
    13     1     1     2     0     0 -0.2637567081E+03  0.2056343156E+03  0.1326672034E+03  0.3597967077E+03  0.1056600000E+00  0.  9.
    25     1     1     2     0     0 -0.7155903914E+02  0.8304668192E+02  0.1815919943E+03  0.2412842719E+03  0.1150000000E+03  0.  9.
    24     1     1     2     0     0  0.3936842952E+02 -0.2519543356E+02 -0.1770497443E+02  0.9468645962E+02  0.8042000000E+02  0.  9.
    21     1     1     2   501   500 -0.2595757289E+03 -0.2046222124E+03  0.4906089586E+03  0.5915631488E+03  0.0000000000E+00  0.  9.
     4     1     1     2   506     0  0.1001782790E+01 -0.6646337197E+02 -0.2746063553E+01  0.6654567415E+02  0.1550000000E+01  0.  9.
    -4     1     1     2     0   506 -0.2531264731E+02  0.8616387574E+02  0.4048332800E+03  0.4146773815E+03  0.1550000000E+01  0.  9.
    -1     1     1     2     0   508  0.1037517775E+03 -0.1095096556E+03  0.1242687778E+03  0.1954472500E+03  0.3200000000E+00  0.  9.
   -24     1     1     2     0     0  0.3466500638E+02  0.1718156627E+02  0.1970792283E+02  0.9139281979E+02  0.8042000000E+02  0.  9.
     4     1     1     2   508     0 -0.4261530963E+01  0.5152121494E+01 -0.1361104458E+01  0.6997149947E+01  0.1550000000E+01  0.  9.
   -13     1     1     2     0     0 -0.4391116970E+01  0.5756451946E+01  0.2327473249E+01  0.7605717784E+01  0.1056600000E+00  0.  9.
    21     1     1     2   504   503  0.2229898339E-02 -0.1467998026E+00 -0.1048630459E+01  0.1058858345E+01  0.0000000000E+00  0.  9.
   -51     1     1     2     0     0  0.2427115304E+03  0.1122894518E+03  0.2689526718E+03  0.1070083563E+04  0.1000612555E+04  0.  9.
</event>
<event>
    11     1  0.1000000000E+01  0.3370803887E+03  0.7299270015E-02  0.1180000007E+00
     1    -1     0     0   502     0  0.0000000000E+00  0.0000000000E+00  0.1070671617E+04  0.1070671665E+04  0.3200000000E+00  0.  9.
    21    -1     0     0   500   501  0.0000000000E+00  0.0000000000E+00 -0.7912963749E+03  0.7912963749E+03  0.0000000000E+00  0.  9.
    40     3     1     2     0     0  0.0000000000E+00  0.0000000000E+00  0.0000000000E+00  0.0000000000E+00  0.1840889583E+04  0.  9.
     3     1     1     2   500     0 -0.7797899261E+02  0.9011747432E+02 -0.1345167360E+03  0.1797133404E+03  0.5000000000E+00  0.  9.
     3     1     1     2   504     0 -0.7849825920E+02  0.1488562354E+03  0.2204173588E+02  0.1697240220E+03  0.5000000000E+00  0.  9.
    -3     1     1     2     0   505  0.9414398120E+02 -0.1576552274E+03  0.2646267201E+02  0.1855229984E+03  0.5000000000E+00  0.  9.
   -24     1     1     2     0     0  0.5818099875E+02  0.8611876502E+01 -0.3635975012E+02  0.1060594214E+03  0.8042000000E+02  0.  9.
    21     1     1     2   502   501 -0.2201067885E+02 -0.5264200837E+02 -0.3119307360E+02  0.6502813906E+02  0.0000000000E+00  0.  9.
   -13     1     1     2     0     0  0.5124496989E+02 -0.3984597551E+02  0.5661221993E+02  0.8613189486E+02  0.1056600000E+00  0.  9.
    21     1     1     2   505   504  0.4247706455E+00 -0.9055094759E+00  0.6918730432E+00  0.1216168500E+01  0.0000000000E+00  0.  9.
   -51     1     1     2     0     0 -0.2550678981E+02  0.3463134540E+01  0.3756363015E+03  0.1068572056E+04  0.1000040508E+04  0.  9.
</event>
<event>
    10     1  0.1000000000E+01  0.3618450600E+03  0.7299270015E-02  0.1180000007E+00
     1    -1     0     0   500     0  0.0000000000E+00  0.0000000000E+00  0.3100937908E+03  0.3100939559E+03  0.3200000000E+00  0.  9.
     2    -1     0     0   502     0  0.0000000000E+00  0.0000000000E+00 -0.1888711077E+04  0.1888711104E+04  0.3200000000E+00  0.  9.
    40     3     1     2     0     0  0.0000000000E+00  0.0000000000E+00  0.0000000000E+00  0.0000000000E+00  0.1530591767E+04  0.  9.
    -5     1     1     2     0   505 -0.2379057703E+02 -0.2538010400E+02  0.1111443792E+02  0.3685341863E+02  0.4950000000E+01  0.  9.
     4     1     1     2   500     0 -0.9779089728E+02 -0.1006024663E+03 -0.2559694604E+03  0.2919018379E+03  0.1550000000E+01  0.  9.
     1     1     1     2   502     0  0.1345643070E+03  0.3540480123E+02  0.9539233348E+01  0.1394709721E+03  0.3200000000E+00  0.  9.
     5     1     1     2   504     0 -0.4642893951E+02 -0.3380438320E+02 -0.1267219598E+03  0.1392168824E+03  0.4950000000E+01  0.  9.
   -14     1     1     2     0     0 -0.1022531395E+01  0.7682377560E+01 -0.2330047219E+02  0.2455557980E+02  0.0000000000E+00  0.  9.
    21     1     1     2   505   504  0.5194019394E+01 -0.1293722709E+01 -0.1330490291E+01  0.5515592473E+01  0.0000000000E+00  0.  9.
    50     1     1     2     0     0  0.2927461877E+02  0.1179934974E+03 -0.1191948575E+04  0.1561290777E+04  0.1001053453E+04  0.  9.
</event>
<event>
    11     1  0.1000000000E+01  0.3508384723E+03  0.7299270015E-02  0.1180000007E+00
     2    -1     0     0   500     0  0.0000000000E+00  0.0000000000E+00  0.2047224057E+04  0.2047224082E+04  0.3200000000E+00  0.  9.
     5    -1     0     0   504     0  0.0000000000E+00  0.0000000000E+00 -0.3327008585E+03  0.3327376801E+03  0.4950000000E+01  0.  9.
    40     3     1     2     0     0  0.0000000000E+00  0.0000000000E+00  0.0000000000E+00  0.0000000000E+00  0.1650644780E+04  0.  9.
   -11     1     1     2     0     0 -0.3169350281E+02 -0.2771819717E+03  0.7754433259E+01  0.2790957807E+03  0.5110000000E-03  0.  9.
    11     1     1     2     0     0  0.7990541684E+01  0.3613373961E+02  0.3165161141E+02  0.4869620519E+02  0.5110000000E-03  0.  9.
    22     1     1     2     0     0  0.3577898759E+01  0.1905135526E+02  0.9621480647E+02  0.9814807426E+02  0.0000000000E+00  0.  9.
     4     1     1     2   500     0  0.9126809350E+01  0.1476259528E+02  0.3515411084E+03  0.3519727067E+03  0.1550000000E+01  0.  9.
     3     1     1     2   502     0 -0.9493143829E+00 -0.4203861241E+01  0.6695195874E+01  0.7978050822E+01  0.5000000000E+00  0.  9.
    21     1     1     2   503   502  0.2920255950E+00 -0.3608976259E-01  0.2150279875E+01  0.2170319091E+01  0.0000000000E+00  0.  9.
    21     1     1     2   504   503  0.9108174275E+00  0.5800365204E+00  0.4193998452E+01  0.4330779810E+01  0.0000000000E+00  0.  9.
    50     1     1     2     0     0  0.1074472437E+02  0.2108941961E+03  0.1214321765E+04  0.1587569846E+04  0.1000604245E+04  0.  9.
</event>
<event>
    15     1  0.1000000000E+01  0.2977184849E+03  0.7299270015E-02  0.1180000007E+00
     2    -1     0     0   502     0  0.0000000000E+00  0.0000000000E+00  0.4594710020E+04  0.4594710031E+04  0.3200000000E+00  0.  9.
     1    -1     0     0   504     0  0.0000000000E+00  0.0000000000E+00 -0.4331090442E+03  0.4331091624E+03  0.3200000000E+00  0.  9.
    40     3     1     2     0     0  0.0000000000E+00  0.0000000000E+00  0.0000000000E+00  0.0000000000E+00  0.2821354845E+04  0.  9.
     6     1     1     2   500     0  0.2763518362E+03 -0.2903235084E+03  0.7006652122E+03  0.8258149348E+03  0.1743000000E+03  0.  9.
    13     1     1     2     0     0 -0.4220659891E+03  0.5847071054E+02  0.9050137578E+03  0.1000304172E+04  0.1056600000E+00  0.  9.
     2     1     1     2   504     0 -0.5998462702E+02 -0.3480978811E+02  0.1719481508E+03  0.1854080521E+03  0.3200000000E+00  0.  9.
    14     1     1     2     0     0  0.2236331504E+03  0.2571717295E+03  0.6157904746E+03  0.7038089180E+03  0.0000000000E+00  0.  9.
    21     1     1     2   501   500 -0.8997016908E+02  0.1440057020E+03  0.2249281905E+03  0.2818243503E+03  0.0000000000E+00  0.  9.
    24     1     1     2     0     0  0.5890823286E+02 -0.6828845897E+02  0.3572463661E+02  0.1260044427E+03  0.8042000000E+02  0.  9.
    22     1     1     2     0     0  0.7937784150E+02 -0.6325851597E+02  0.9968950387E+02  0.1422690365E+03  0.0000000000E+00  0.  9.
    -2     1     1     2     0   507  0.7217014506E+01 -0.1849892302E+02  0.7500770935E+02  0.7759223101E+02  0.3200000000E+00  0.  9.
     1     1     1     2   506     0 -0.2611395978E+02  0.7970066637E+00  0.2082465729E+02  0.3341171750E+02  0.3200000000E+00  0.  9.
    21     1     1     2   502   501 -0.1800664271E+00 -0.2209178807E+00  0.1302526785E+01  0.1333343412E+01  0.0000000000E+00  0.  9.
    21     1     1     2   507   506 -0.5461801394E+00 -0.1965158030E+00  0.1701893358E+00  0.6048930612E+00  0.0000000000E+00  0.  9.
    50     1     1     2     0     0 -0.4662708390E+02  0.1515147942E+02  0.1310535967E+04  0.1649443102E+04  0.1000377117E+04  0.  9.
</event>
<event>
     9     1  0.1000000000E+01  0.3594633379E+03  0.7299270015E-02  0.1180000007E+00
    21    -1     0     0   502   503  0.0000000000E+00  0.0000000000E+00  0.5580440925E+03  0.5580440925E+03  0.0000000000E+00  0.  9.
    21    -1     0     0   503   504  0.0000000000E+00  0.0000000000E+00 -0.1082588744E+04  0.1082588744E+04  0.0000000000E+00  0.  9.
    40     3     1     2     0     0  0.0000000000E+00  0.0000000000E+00  0.0000000000E+00  0.0000000000E+00  0.1554518900E+04  0.  9.
     5     1     1     2   500     0  0.5254027697E+02 -0.1310416964E+03  0.5527599543E+02  0.1516982039E+03  0.4950000000E+01  0.  9.
     4     1     1     2   502     0  0.4701954452E+02 -0.3514109898E+01  0.9611987233E+02  0.1070729606E+03  0.1550000000E+01  0.  9.
    -2     1     1     2     0   500 -0.1562924622E+03 -0.1841557253E+02 -0.2502662750E+02  0.1593515031E+03  0.3200000000E+00  0.  9.
    -3     1     1     2     0   504  0.1091176735E+02 -0.7138070690E+01 -0.2667141201E+00  0.1305143120E+02  0.5000000000E+00  0.  9.
    22     1     1     2     0     0 -0.1413486684E+01 -0.4146162725E+01 -0.5661707769E+00  0.4416917397E+01  0.0000000000E+00  0.  9.
    50     1     1     2     0     0  0.4723436001E+02  0.1642556123E+03 -0.6500810063E+03  0.1205041820E+04  0.1000154729E+04  0.  9.
</event>
<event>
    14     1  0.1000000000E+01  0.3110910431E+03  0.7299270015E-02  0.1180000007E+00
     2    -1     0     0   500     0  0.0000000000E+00  0.0000000000E+00  0.2382146165E+04  0.2382146187E+04  0.3200000000E+00  0.  9.
     1    -1     0     0   504     0  0.0000000000E+00  0.0000000000E+00 -0.5981826898E+03  0.5981827754E+03  0.3200000000E+00  0.  9.
    40     3     1     2     0     0  0.0000000000E+00  0.0000000000E+00  0.0000000000E+00  0.0000000000E+00  0.2387432730E+04  0.  9.
    -3     1     1     2     0   506  0.1213777433E+01 -0.1698643199E+03 -0.5256458804E+02  0.1778163276E+03  0.5000000000E+00  0.  9.
     4     1     1     2   500     0  0.2282682827E+02 -0.2241731618E+02  0.1903539181E+03  0.1930300930E+03  0.1550000000E+01  0.  9.
    11     1     1     2     0     0 -0.4389834456E+02 -0.5455176602E+02  0.5237057410E+02  0.8743933247E+02  0.5110000000E-03  0.  9.
     4     1     1     2   502     0  0.1403629080E+03 -0.5361302745E+02  0.2142578564E+03  0.2616962632E+03  0.1550000000E+01  0.  9.
     1     1     1     2   506     0 -0.5106257856E+02  0.1445353931E+03  0.1733481232E+03  0.2314034161E+03  0.3200000000E+00  0.  9.
    -3     1     1     2     0   508  0.1423879133E+03 -0.2734180713E+02  0.1630044042E+03  0.2181572324E+03  0.5000000000E+00  0.  9.
    21     1     1     2   503   502 -0.3116166491E+03  0.2666981200E+03  0.2768185265E+03  0.4948346389E+03  0.0000000000E+00  0.  9.
     1     1     1     2   508     0 -0.4360422453E+02 -0.5243790625E+01  0.1654947910E+02  0.4693413891E+02  0.3200000000E+00  0.  9.
    11     1     1     2     0     0  0.7683233055E+01 -0.4111099572E+01  0.1026504684E+02  0.1346493211E+02  0.5110000000E-03  0.  9.
    21     1     1     2   504   503 -0.7001919931E+00  0.7445262328E+00  0.3818759932E+00  0.1091062516E+01  0.0000000000E+00  0.  9.
    51     1     1     2     0     0  0.1364073287E+03 -0.7483491240E+02  0.7391782589E+03  0.1254461525E+04  0.1001539812E+04  0.  9.
</event>
<event>
     6     1  0.1000000000E+01  0.4576734365E+03  0.7299270015E-02  0.1180000007E+00
    21    -1     0     0   500   501  0.0000000000E+00  0.0000000000E+00  0.8432328679E+02  0.8432328679E+02  0.0000000000E+00  0.  9.
     2    -1     0     0   501     0  0.0000000000E+00  0.0000000000E+00 -0.3399997339E+04  0.3399997354E+04  0.3200000000E+00  0.  9.
    40     3     1     2     0     0  0.0000000000E+00  0.0000000000E+00  0.0000000000E+00  0.0000000000E+00  0.1070885572E+04  0.  9.
    14     1     1     2     0     0  0.2982825481E+02 -0.2037699142E+02 -0.5885535248E+02  0.6905721599E+02  0.0000000000E+00  0.  9.
     2     1     1     2   500     0 -0.2629297750E+02 -0.8241576259E+00 -0.1065057295E+03  0.1097067579E+03  0.3200000000E+00  0.  9.
    50     1     1     2     0     0 -0.3535277312E+01  0.2120114905E+02 -0.3150312971E+04  0.3305556667E+04  0.1000885149E+04  0.  9.
</event>
<event>
    23     1  0.1000000000E+01  0.2772221741E+03  0.7299270015E-02  0.1180000007E+00
     2    -1     0     0   500     0  0.0000000000E+00  0.0000000000E+00  0.1687699983E+04  0.1687700014E+04  0.3200000000E+00  0.  9.
     1    -1     0     0   511     0  0.0000000000E+00  0.0000000000E+00 -0.2192972216E+04  0.2192972239E+04  0.3200000000E+00  0.  9.
    40     3     1     2     0     0  0.0000000000E+00  0.0000000000E+00  0.0000000000E+00  0.0000000000E+00  0.3847637861E+04  0.  9.
    21     1     1     2   503   502  0.4180341037E+02 -0.1730018418E+03 -0.2576338208E+03  0.3131331154E+03  0.0000000000E+00  0.  9.
   -15     1     1     2     0     0  0.5391248568E+02 -0.1224927972E+02  0.8204539354E+01  0.5592024246E+02  0.1777100000E+01  0.  9.
    23     1     1     2     0     0  0.1358154237E+02  0.5681831626E+02 -0.2575510405E+02  0.1113164682E+03  0.9118800000E+02  0.  9.
    23     1     1     2     0     0  0.1301169401E+03  0.1859606685E+03 -0.1467625205E+03  0.2852477469E+03  0.9118800000E+02  0.  9.
    21     1     1     2   504   503 -0.2848024553E+02 -0.1167698729E+03 -0.2696445247E+03  0.2952194054E+03  0.0000000000E+00  0.  9.
    21     1     1     2   505   504 -0.4577648485E+02  0.5408025177E+02 -0.6810317393E+02  0.9827615426E+02  0.0000000000E+00  0.  9.
    21     1     1     2   506   505 -0.5582971268E+02 -0.3799278697E+02 -0.8924930813E+02  0.1119189335E+03  0.0000000000E+00  0.  9.
    21     1     1     2   507   506  0.2872714525E+02  0.5830858281E+02  0.2450781563E+03  0.2535516562E+03  0.0000000000E+00  0.  9.
     3     1     1     2   500     0  0.3980437944E+02  0.2308577715E+01 -0.1627935297E+03  0.1676057919E+03  0.5000000000E+00  0.  9.
   -24     1     1     2     0     0 -0.1736737838E+02  0.9217619176E+02 -0.3747044003E+02  0.1291103653E+03  0.8042000000E+02  0.  9.
    12     1     1     2     0     0  0.1520742907E+02 -0.1029030458E+03 -0.8452248216E+02  0.1340311632E+03  0.0000000000E+00  0.  9.
   -13     1     1     2     0     0 -0.1041252235E+02 -0.2471143812E+02  0.1038618909E+02  0.2875691019E+02  0.1056600000E+00  0.  9.
    21     1     1     2   508   507  0.1144678789E+03  0.1595619105E+03  0.4171055872E+02  0.2007552472E+03  0.0000000000E+00  0.  9.
     1     1     1     2   502     0 -0.9171780831E+02 -0.8034636708E+02  0.4724043057E+02  0.1307648873E+03  0.3200000000E+00  0.  9.
    22     1     1     2     0     0 -0.4531596815E+02  0.6510663937E+02 -0.4933865193E+01  0.7947801259E+02  0.0000000000E+00  0.  9.
    21     1     1     2   509   508 -0.5994618162E+02 -0.2082186797E+03  0.7876828359E+02  0.2305493565E+03  0.0000000000E+00  0.  9.
    21     1     1     2   510   509  0.5265142641E+02  0.1446120317E+02 -0.1882074478E+02  0.5775395687E+02  0.0000000000E+00  0.  9.
   -15     1     1     2     0     0  0.7774931807E+02  0.3776229827E+02 -0.7573688329E+02  0.1149355524E+03  0.1777100000E+01  0.  9.
    21     1     1     2   511   510 -0.1113547513E+02 -0.4832958163E+01  0.1831363274E+02  0.2197146866E+02  0.0000000000E+00  0.  9.
   -51     1     1     2     0     0 -0.2020401787E+03  0.3448163020E+02  0.2864523745E+03  0.1060375818E+04  0.1000166335E+04  0.  0.
</event>
<event>
    13     1  0.1000000000E+01  0.3456473951E+03  0.7299270015E-02  0.1180000007E+00
    -3    -1     0     0     0   500  0.0000000000E+00  0.0000000000E+00  0.2424266837E+03  0.2424271993E+03  0.5000000000E+00  0.  9.
     2    -1     0     0   502     0  0.0000000000E+00  0.0000000000E+00 -0.3038274602E+04  0.3038274619E+04  0.3200000000E+00  0.  9.
    40     3     1     2     0     0  0.0000000000E+00  0.0000000000E+00  0.0000000000E+00  0.0000000000E+00  0.1716461138E+04  0.  9.
   -13     1     1     2     0     0  0.2926526200E+03  0.3313218122E+02 -0.3262146638E+03  0.4394989368E+03  0.1056600000E+00  0.  9.
    21     1     1     2   501   500 -0.3326586034E+02  0.3574145280E+02 -0.1264628206E+03  0.1355614765E+03  0.0000000000E+00  0.  9.
    -4     1     1     2     0   507  0.9227276144E+01  0.7392884204E+02 -0.3073951295E+02  0.8060977898E+02  0.1550000000E+01  0.  9.
     2     1     1     2   504     0  0.1052572232E+03 -0.5451923295E+02 -0.2746891792E+03  0.2991749945E+03  0.3200000000E+00  0.  9.
    21     1     1     2   502   501  0.1683157714E+02  0.2987973608E+02 -0.8732694644E+02  0.9381948727E+02  0.0000000000E+00  0.  9.
    21     1     1     2   505   504  0.7477395371E+00  0.4288038994E+00 -0.1207469788E+01  0.1483566813E+01  0.0000000000E+00  0.  9.
    21     1     1     2   506   505 -0.4542093606E+00 -0.2523191021E+01 -0.1458181315E+01  0.2949422286E+01  0.0000000000E+00  0.  9.
    22     1     1     2     0     0  0.4323425766E+00  0.9750702398E-02 -0.4586524511E+00  0.6303786565E+00  0.0000000000E+00  0.  9.
    21     1     1     2   507   506 -0.2469707734E+00 -0.3084785911E+00 -0.1240492760E+01  0.1301912398E+01  0.0000000000E+00  0.  9.
   -51     1     1     2     0     0 -0.3911817380E+03 -0.1157698642E+03 -0.1946049999E+04  0.2225671864E+04  0.1000039416E+04  0.  9.
</event>
<event>
    11     1  0.1000000000E+01  0.3433012838E+03  0.7299270015E-02  0.1180000007E+00
    21    -1     0     0   500   501  0.0000000000E+00  0.0000000000E+00  0.2093224902E+03  0.2093224902E+03  0.0000000000E+00  0.  9.
     1    -1     0     0   501     0  0.0000000000E+00  0.0000000000E+00 -0.3651248331E+04  0.3651248345E+04  0.3200000000E+00  0.  9.
    40     3     1     2     0     0  0.0000000000E+00  0.0000000000E+00  0.0000000000E+00  0.0000000000E+00  0.1748471813E+04  0.  9.
    -2     1     1     2     0   506 -0.1743471494E+03  0.1114341459E+03 -0.1102535735E+04  0.1121784136E+04  0.3200000000E+00  0.  9.
   -13     1     1     2     0     0 -0.7035394288E+02 -0.6751583160E+02 -0.1717362256E+03  0.1974877392E+03  0.1056600000E+00  0.  9.
     3     1     1     2   500     0 -0.3127723889E+02 -0.2225671249E+02 -0.4300866292E+03  0.4317966947E+03  0.5000000000E+00  0.  9.
    21     1     1     2   504   503  0.1614741440E+02 -0.8230971656E+02 -0.1724820159E+03  0.1917959182E+03  0.0000000000E+00  0.  9.
     1     1     1     2   503     0 -0.2331754685E+02 -0.1738294610E+02 -0.7373566982E+02  0.7926491159E+02  0.3200000000E+00  0.  9.
    21     1     1     2   505   504  0.7022508408E+01  0.9229787896E+01 -0.1565748741E+02  0.1948490495E+02  0.0000000000E+00  0.  9.
    21     1     1     2   506   505  0.1240476421E+02  0.9947114487E+01 -0.6914748600E+02  0.7095208300E+02  0.0000000000E+00  0.  9.
    50     1     1     2     0     0  0.2637211910E+03  0.5885415850E+02 -0.1406544592E+04  0.1748004448E+04  0.1002067454E+04  0.  9.
</event>
<event>
    10     1  0.1000000000E+01  0.3573523327E+03  0.7299270015E-02  0.1180000007E+00
    21    -1     0     0   504   505  0.0000000000E+00  0.0000000000E+00  0.4575618763E+03  0.4575618763E+03  0.0000000000E+00  0.  9.
     4    -1     0     0   500     0  0.0000000000E+00  0.0000000000E+00 -0.1358144370E+04  0.1358145254E+04  0.1550000000E+01  0.  9.
    40     3     1     2     0     0  0.0000000000E+00  0.0000000000E+00  0.0000000000E+00  0.0000000000E+00  0.1576624101E+04  0.  9.
     4     1     1     2   500     0 -0.1112670882E+03 -0.6615395605E+02 -0.2350721176E+03  0.2683617219E+03  0.1550000000E+01  0.  9.
     3     1     1     2   502     0 -0.5386079196E+02 -0.1461427511E+02 -0.7903122436E+02  0.9675095023E+02  0.5000000000E+00  0.  9.
    -5     1     1     2     0   502  0.9164283513E+02 -0.1399367127E+03 -0.1717253328E+03  0.2397807024E+03  0.4950000000E+01  0.  9.
     3     1     1     2   504     0  0.1481903160E+02 -0.9359797664E+01  0.6412603290E+02  0.6648012940E+02  0.5000000000E+00  0.  9.
    21     1     1     2   506   505  0.1177052384E+00  0.4408840646E+01 -0.1515128645E+02  0.1578015245E+02  0.0000000000E+00  0.  9.
    -1     1     1     2     0   506  0.9008392752E+00 -0.1344327846E+01 -0.9398275933E+00  0.1898526972E+01  0.3200000000E+00  0.  9.
    50     1     1     2     0     0  0.5764746891E+02  0.2270002287E+03 -0.4627887374E+03  0.1126654947E+04  0.1000162797E+04  0.  9.
</event>
<event>
     7     1  0.1000000000E+01  0.3920433094E+03  0.7299270015E-02  0.1180000007E+00
    21    -1     0     0   500   501  0.0000000000E+00  0.0000000000E+00  0.1917938240E+03  0.1917938240E+03  0.0000000000E+00  0.  9.
     2    -1     0     0   502     0  0.0000000000E+00  0.0000000000E+00 -0.2206127132E+04  0.2206127155E+04  0.3200000000E+00  0.  9.
    40     3     1     2     0     0  0.0000000000E+00  0.0000000000E+00  0.0000000000E+00  0.0000000000E+00  0.1300955936E+04  0.  9.
   -15     1     1     2     0     0 -0.1291464494E+03 -0.2101467550E+03 -0.3513701611E+03  0.4293071304E+03  0.1777100000E+01  0.  9.
     5     1     1     2   500     0 -0.2570818437E+01 -0.1167524928E+02 -0.4595560005E+01  0.1373106788E+02  0.4950000000E+01  0.  9.
    21     1     1     2   502   501  0.7917500982E+00 -0.7956957019E+00 -0.2485487194E+01  0.2727204880E+01  0.0000000000E+00  0.  9.
    50     1     1     2     0     0  0.1309255177E+03  0.2226177000E+03 -0.1655882100E+04  0.1952155576E+04  0.1001132226E+04  0.  9.
</event>
<event>
     9     1  0.1000000000E+01  0.4233819697E+03  0.7299270015E-02  0.1180000007E+00
     1    -1     0     0   500     0  0.0000000000E+00  0.0000000000E+00  0.9554706869E+03  0.9554707405E+03  0.3200000000E+00  0.  9.
     2    -1     0     0   504     0  0.0000000000E+00  0.0000000000E+00 -0.3520317523E+03  0.3520318977E+03  0.3200000000E+00  0.  9.
    40     3     1     2     0     0  0.0000000000E+00  0.0000000000E+00  0.0000000000E+00  0.0000000000E+00  0.1159924395E+04  0.  9.
    21     1     1     2   503   502  0.2069304441E+02  0.1250852258E+02 -0.4782241398E+02  0.5358776449E+02  0.0000000000E+00  0.  9.
     4     1     1     2   500     0  0.5421544628E+00  0.2219845501E+02  0.6118007321E+02  0.6510352674E+02  0.1550000000E+01  0.  9.
     3     1     1     2   502     0  0.1238090065E+02 -0.3563126208E+01  0.7156568271E+01  0.1474615335E+02  0.5000000000E+00  0.  9.
    21     1     1     2   504   503 -0.1215087364E+00 -0.1687762975E+02  0.8577173648E+01  0.1893243403E+02  0.0000000000E+00  0.  9.
   -12     1     1     2     0     0 -0.5395846866E+00 -0.3230700348E+00  0.3385479678E+00  0.7142412813E+00  0.0000000000E+00  0.  9.
    50     1     1     2     0     0 -0.3295500610E+02 -0.1394315160E+02  0.5740089855E+03  0.1154418518E+04  0.1000957220E+04  0.  9.
</event>
<event>
     9     1  0.1000000000E+01  0.4038253172E+03  0.7299270015E-02  0.1180000007E+00
     1    -1     0     0   501     0  0.0000000000E+00  0.0000000000E+00  0.1132728173E+04  0.1132728218E+04  0.3200000000E+00  0.  9.
    -5    -1     0     0     0   500  0.0000000000E+00  0.0000000000E+00 -0.3388797508E+03  0.3389159011E+03  0.4950000000E+01  0.  9.
    40     3     1     2     0     0  0.0000000000E+00  0.0000000000E+00  0.0000000000E+00  0.0000000000E+00  0.1239169519E+04  0.  9.
    23     1     1     2     0     0 -0.3960769762E+02  0.1830092191E+02  0.1527865433E+03  0.1832011807E+03  0.9118800000E+02  0.  9.
    21     1     1     2   501   500  0.1619876293E+02 -0.1274858317E+02 -0.1424364622E+02  0.2505609210E+02  0.0000000000E+00  0.  9.
     3     1     1     2   503     0  0.3678154130E+02 -0.8849543302E+01  0.2047379547E+02  0.4301886211E+02  0.5000000000E+00  0.  9.
    -1     1     1     2     0   503 -0.3750636139E+01  0.2726822287E+02 -0.6075643458E+01  0.2818934362E+02  0.3200000000E+00  0.  9.
    22     1     1     2     0     0  0.4667326769E+01  0.5789533519E+00  0.3057457502E+01  0.5609560814E+01  0.0000000000E+00  0.  9.
    50     1     1     2     0     0 -0.1428929724E+02 -0.2454997166E+02  0.6378499154E+03  0.1186569080E+04  0.1000143380E+04  0.  9.
</event>
<event>
     8     1  0.1000000000E+01  0.4214334247E+03  0.7299270015E-02  0.1180000007E+00
     1    -1     0     0   500     0  0.0000000000E+00  0.0000000000E+00  0.8081374896E+03  0.8081375529E+03  0.3200000000E+00  0.  9.
    21    -1     0     0   502   503  0.0000000000E+00  0.0000000000E+00 -0.4210949547E+03  0.4210949547E+03  0.0000000000E+00  0.  9.
    40     3     1     2     0     0  0.0000000000E+00  0.0000000000E+00  0.0000000000E+00  0.0000000000E+00  0.1166709319E+04  0.  9.
    11     1     1     2     0     0  0.2201240058E+02  0.5095483528E+02 -0.1267432450E+02  0.5693487086E+02  0.5110000000E-03  0.  9.
    -5     1     1     2     0   503 -0.1760059243E+02 -0.3976855751E+02 -0.2039169217E+02  0.4828708554E+02  0.4950000000E+01  0.  9.
     2     1     1     2   500     0 -0.2544369980E+02 -0.9578850420E+01  0.2075692869E+02  0.3420655966E+02  0.3200000000E+00  0.  9.
     1     1     1     2   502     0 -0.5523463060E+01 -0.1088700111E+02  0.1107036842E+02  0.1648304869E+02  0.3200000000E+00  0.  9.
    50     1     1     2     0     0  0.2655535471E+02  0.9279573752E+01  0.3882812544E+03  0.1073320943E+04  0.1000232081E+04  0.  9.
</event>
<event>
    11     1  0.1000000000E+01  0.3344949032E+03  0.7299270015E-02  0.1180000007E+00
    21    -1     0     0   500   501  0.0000000000E+00  0.0000000000E+00  0.6653507815E+03  0.6653507815E+03  0.0000000000E+00  0.  9.
     2    -1     0     0   501     0  0.0000000000E+00  0.0000000000E+00 -0.1332012875E+04  0.1332012914E+04  0.3200000000E+00  0.  9.
    40     3     1     2     0     0  0.0000000000E+00  0.0000000000E+00  0.0000000000E+00  0.0000000000E+00  0.1882823248E+04  0.  9.
     4     1     1     2   500     0  0.2330107761E+03  0.4854250471E+02  0.2635075033E+02  0.2394726729E+03  0.1550000000E+01  0.  9.
    15     1     1     2     0     0 -0.1050300787E+03 -0.1589196394E+03 -0.2103457399E+02  0.1916569347E+03  0.1777100000E+01  0.  9.
    -3     1     1     2     0   504  0.2201229845E+03 -0.1019355067E+03 -0.1477372075E+03  0.2840273021E+03  0.5000000000E+00  0.  9.
    21     1     1     2   504   503 -0.5064558205E+02 -0.8428603290E+01 -0.1092121449E+03  0.1206785355E+03  0.0000000000E+00  0.  9.
   -13     1     1     2     0     0 -0.2585768902E+01 -0.9651352614E+01 -0.1829828024E+01  0.1015845671E+02  0.1056600000E+00  0.  9.
     1     1     1     2   503     0  0.1961113054E+01  0.3041934129E+00  0.4010490123E+00  0.2049814225E+01  0.3200000000E+00  0.  9.
    14     1     1     2     0     0 -0.4495057578E+01 -0.1171203663E+01 -0.2950227285E+01  0.5502826699E+01  0.0000000000E+00  0.  9.
    50     1     1     2     0     0 -0.2923383864E+03  0.2312596076E+03 -0.4106499115E+03  0.1143817153E+04  0.1000370726E+04  0.  9.
</event>
<event>
     8     1  0.1000000000E+01  0.4116733137E+03  0.7299270015E-02  0.1180000007E+00
     2    -1     0     0   500     0  0.0000000000E+00  0.0000000000E+00  0.2410990934E+03  0.2410993057E+03  0.3200000000E+00  0.  9.
     1    -1     0     0   502     0  0.0000000000E+00  0.0000000000E+00 -0.1503674602E+04  0.1503674636E+04  0.3200000000E+00  0.  9.
    40     3     1     2     0     0  0.0000000000E+00  0.0000000000E+00  0.0000000000E+00  0.0000000000E+00  0.1204217253E+04  0.  9.
     4     1     1     2   500     0  0.3471024242E+02  0.9725414694E+02 -0.2358722577E+03  0.2574903774E+03  0.1550000000E+01  0.  9.
    -4     1     1     2     0   504  0.3346268722E+02 -0.5648556209E+02 -0.6911404397E+02  0.9533899377E+02  0.1550000000E+01  0.  9.
     4     1     1     2   502     0  0.9181983542E+00  0.3462368877E+01  0.3996390813E+00  0.3923429348E+01  0.1550000000E+01  0.  9.
     3     1     1     2   504     0  0.6856135437E-01  0.3726751970E+00 -0.1458471773E+01  0.1587679872E+01  0.5000000000E+00  0.  9.
    50     1     1     2     0     0 -0.6915968936E+02 -0.4460362893E+02 -0.9565303745E+03  0.1386433462E+04  0.1000237392E+04  0.  9.
</event>
<event>
     7     1  0.1000000000E+01  0.4124146970E+03  0.7299270015E-02  0.1180000007E+00
     2    -1     0     0   503     0  0.0000000000E+00  0.0000000000E+00  0.7701443328E+03  0.7701443992E+03  0.3200000000E+00  0.  9.
    21    -1     0     0   500   501  0.0000000000E+00  0.0000000000E+00 -0.4683404105E+03  0.4683404105E+03  0.0000000000E+00  0.  9.
    40     3     1     2     0     0  0.0000000000E+00  0.0000000000E+00  0.0000000000E+00  0.0000000000E+00  0.1201149040E+04  0.  9.
     2     1     1     2   500     0 -0.1077312323E+03  0.5606792637E+02 -0.6583155324E+02  0.1381431380E+03  0.3200000000E+00  0.  9.
    21     1     1     2   502   501  0.1687177756E+02 -0.6651267955E+01  0.1828870575E+02  0.2575602845E+02  0.0000000000E+00  0.  9.
    21     1     1     2   503   502  0.1049533041E+02  0.2765838470E+01  0.7993884444E+01  0.1347976303E+02  0.0000000000E+00  0.  9.
    50     1     1     2     0     0  0.8036412435E+02 -0.5218249689E+02  0.3413528853E+03  0.1061105880E+04  0.1000121238E+04  0.  9.
</event>
<event>
     7     1  0.1000000000E+01  0.3677401768E+03  0.7299270015E-02  0.1180000007E+00
    -4    -1     0     0     0   500  0.0000000000E+00  0.0000000000E+00  0.3911895232E+03  0.3911925939E+03  0.1550000000E+01  0.  9.
    21    -1     0     0   500   501  0.0000000000E+00  0.0000000000E+00 -0.1391613157E+04  0.1391613157E+04  0.0000000000E+00  0.  9.
    40     3     1     2     0     0  0.0000000000E+00  0.0000000000E+00  0.0000000000E+00  0.0000000000E+00  0.1475652025E+04  0.  9.
    11     1     1     2     0     0  0.1084858234E+03 -0.1343417654E+03 -0.6034116141E+02  0.1829151158E+03  0.5110000000E-03  0.  9.
    -5     1     1     2     0   501 -0.2555107292E+03  0.4636752778E+02 -0.2744791362E+03  0.3778875217E+03  0.4950000000E+01  0.  9.
    22     1     1     2     0     0 -0.2899866512E+01 -0.5729908086E+01 -0.8958774188E+01  0.1102273593E+02  0.0000000000E+00  0.  9.
    50     1     1     2     0     0  0.1499247723E+03  0.9370414571E+02 -0.6566445618E+03  0.1210980377E+04  0.1002014715E+04  0.  9.
</event>
<event>
    11     1  0.1000000000E+01  0.3131260585E+03  0.7299270015E-02  0.1180000007E+00
    21    -1     0     0   500   501  0.0000000000E+00  0.0000000000E+00  0.1309704778E+04  0.1309704778E+04  0.0000000000E+00  0.  9.
     2    -1     0     0   501     0  0.0000000000E+00  0.0000000000E+00 -0.1038541366E+04  0.1038541416E+04  0.3200000000E+00  0.  9.
    40     3     1     2     0     0  0.0000000000E+00  0.0000000000E+00  0.0000000000E+00  0.0000000000E+00  0.2332537372E+04  0.  9.
    21     1     1     2   504   503 -0.9156748949E+02  0.1924191865E+03 -0.6384852041E+02  0.2224553483E+03  0.0000000000E+00  0.  9.
     2     1     1     2   500     0  0.1664677252E+03  0.1475398758E+03  0.1948199131E+03  0.2956931170E+03  0.3200000000E+00  0.  9.
    21     1     1     2   505   504 -0.2799869013E+02  0.1447856165E+03 -0.1855135760E+03  0.2369854179E+03  0.0000000000E+00  0.  9.
    -1     1     1     2     0   506  0.6712629876E+02 -0.4140723018E+02  0.2295223278E+03  0.2426954884E+03  0.3200000000E+00  0.  9.
     5     1     1     2   503     0  0.5644062783E+02 -0.7731276650E+00  0.1572251313E+03  0.1671238661E+03  0.4950000000E+01  0.  9.
    21     1     1     2   506   505  0.8094802187E+00  0.3421657542E+02  0.1468840941E+02  0.3724484747E+02  0.0000000000E+00  0.  9.
    13     1     1     2     0     0  0.1306783051E+02 -0.2604638794E+02  0.7954079556E+01  0.3020697046E+02  0.1056600000E+00  0.  9.
    51     1     1     2     0     0 -0.1843457829E+03 -0.4507345084E+03 -0.8368435275E+02  0.1115841138E+04  0.1000476592E+04  0.  9.
</event>
<event>
    10     1  0.1000000000E+01  0.4171095305E+03  0.7299270015E-02  0.1180000007E+00
     2    -1     0     0   502     0  0.0000000000E+00  0.0000000000E+00  0.7979474154E+03  0.7979474796E+03  0.3200000000E+00  0.  9.
    21    -1     0     0   500   501  0.0000000000E+00  0.0000000000E+00 -0.4381513492E+03  0.4381513492E+03  0.0000000000E+00  0.  9.
    40     3     1     2     0     0  0.0000000000E+00  0.0000000000E+00  0.0000000000E+00  0.0000000000E+00  0.1182576469E+04  0.  9.
     4     1     1     2   500     0 -0.1208029149E+02 -0.4589866403E+02  0.6253500414E+02  0.7852165336E+02  0.1550000000E+01  0.  9.
    -1     1     1     2     0   504  0.1260732111E+02  0.2368179279E+02 -0.4351007699E+02  0.5111752200E+02  0.3200000000E+00  0.  9.
     5     1     1     2   504     0  0.1357913619E+02 -0.1833497037E+02  0.4059445442E+01  0.2369695498E+02  0.4950000000E+01  0.  9.
    21     1     1     2   502   501  0.9077542498E+01 -0.1157277039E+02  0.1181268293E+02  0.1886452412E+02  0.0000000000E+00  0.  9.
     1     1     1     2   506     0 -0.1144060146E+01 -0.3674690484E+01 -0.4120643414E+01  0.5647506168E+01  0.3200000000E+00  0.  9.
    -1     1     1     2     0   506 -0.2731485890E+01  0.5913365780E+00  0.2461439338E+01  0.3737884125E+01  0.3200000000E+00  0.  9.
    50     1     1     2     0     0 -0.1930816227E+02  0.5520796590E+02  0.3265582147E+03  0.1054512784E+04  0.1000967642E+04  0.  9.
</event>
<event>
    10     1  0.1000000000E+01  0.3486923987E+03  0.7299270015E-02  0.1180000007E+00
    -3    -1     0     0     0   500  0.0000000000E+00  0.0000000000E+00  0.4656321216E+03  0.4656323901E+03  0.5000000000E+00  0.  9.
     2    -1     0     0   500     0  0.0000000000E+00  0.0000000000E+00 -0.1510003331E+04  0.1510003365E+04  0.3200000000E+00  0.  9.
    40     3     1     2     0     0  0.0000000000E+00  0.0000000000E+00  0.0000000000E+00  0.0000000000E+00  0.1677028746E+04  0.  9.
     4     1     1     2   502     0 -0.8474406896E+02 -0.9226524362E+02 -0.1621335338E+03  0.2049002628E+03  0.1550000000E+01  0.  9.
    12     1     1     2     0     0 -0.1073366507E+03  0.1891604970E+03  0.1274948366E+03  0.2521066908E+03  0.0000000000E+00  0.  9.
    -5     1     1     2     0   504 -0.5565809658E+02 -0.9145917792E+01 -0.1294073805E+03  0.1412524129E+03  0.4950000000E+01  0.  9.
   -16     1     1     2     0     0  0.1197834340E+02 -0.4515508000E+01  0.7072432831E+01  0.1462497280E+02  0.0000000000E+00  0.  9.
    21     1     1     2   503   502  0.2737900396E+01 -0.8078450646E-01 -0.5784474314E+01  0.6400216231E+01  0.0000000000E+00  0.  9.
    21     1     1     2   504   503 -0.9096770759E-01 -0.6387710246E-01 -0.5615478374E+00  0.5724433437E+00  0.0000000000E+00  0.  9.
    50     1     1     2     0     0  0.2331135401E+03 -0.8308916596E+02 -0.8810515426E+03  0.1355778756E+04  0.1000319191E+04  0.  9.
</event>
<event>
    12     1  0.1000000000E+01  0.4226591765E+03  0.7299270015E-02  0.1180000007E+00
     2    -1     0     0   500     0  0.0000000000E+00  0.0000000000E+00  0.8956557737E+03  0.8956558308E+03  0.3200000000E+00  0.  9.
    21    -1     0     0   502   503  0.0000000000E+00  0.0000000000E+00 -0.3771564419E+03  0.3771564419E+03  0.0000000000E+00  0.  9.
    40     3     1     2     0     0  0.0000000000E+00  0.0000000000E+00  0.0000000000E+00  0.0000000000E+00  0.1162415384E+04  0.  9.
     2     1     1     2   500     0 -0.3340954588E+02 -0.1469962561E+02  0.4412595595E+02  0.5726673675E+02  0.3200000000E+00  0.  9.
   -15     1     1     2     0     0  0.6747724166E+02  0.2116324588E+02 -0.2191422073E+02  0.7405708793E+02  0.1777100000E+01  0.  9.
    21     1     1     2   504   503  0.6347906330E+01 -0.1127910069E+02  0.1038145329E+02  0.1659182327E+02  0.0000000000E+00  0.  9.
    21     1     1     2   505   504  0.2969444481E+01 -0.3604964266E+00 -0.1731894745E+01  0.3456445805E+01  0.0000000000E+00  0.  9.
     3     1     1     2   502     0  0.1361925310E+01  0.3553391263E+01  0.4325930915E+01  0.5783174586E+01  0.5000000000E+00  0.  9.
    -2     1     1     2     0   506 -0.1190474053E+01 -0.1706717444E+01  0.3564965906E+01  0.4140228836E+01  0.3200000000E+00  0.  9.
    22     1     1     2     0     0 -0.2707414821E+00 -0.2821606705E+00  0.6300782386E+00  0.7415619872E+00  0.0000000000E+00  0.  9.
    21     1     1     2   506   505 -0.1640814125E-01  0.5660249016E+00 -0.3148013352E+00  0.6478837064E+00  0.0000000000E+00  0.  9.
    50     1     1     2     0     0 -0.4326934823E+02  0.3045438796E+01  0.4794318642E+03  0.1110127330E+04  0.1000323080E+04  0.  9.
</event>
<event>
     9     1  0.1000000000E+01  0.3934945726E+03  0.7299270015E-02  0.1180000007E+00
     3    -1     0     0   500     0  0.0000000000E+00  0.0000000000E+00  0.1249239077E+04  0.1249239177E+04  0.5000000000E+00  0.  9.
    -3    -1     0     0     0   500  0.0000000000E+00  0.0000000000E+00 -0.3343978271E+03  0.3343982009E+03  0.5000000000E+00  0.  9.
    40     3     1     2     0     0  0.0000000000E+00  0.0000000000E+00  0.0000000000E+00  0.0000000000E+00  0.1292661143E+04  0.  9.
     6     1     1     2   502     0  0.1298976491E+03 -0.1870520195E+02  0.1430145118E+03  0.2608772210E+03  0.1743000000E+03  0.  9.
   -14     1     1     2     0     0 -0.2615384535E+01 -0.5114630849E+02  0.2587199854E+02  0.5737722037E+02  0.0000000000E+00  0.  9.
    -4     1     1     2     0   504 -0.7262532967E+01 -0.6234966435E+01  0.1215232364E+02  0.1554672511E+02  0.1550000000E+01  0.  9.
    21     1     1     2   503   502  0.5225512091E+00  0.3208473104E+00  0.1468162319E+00  0.6305218225E+00  0.0000000000E+00  0.  9.
    21     1     1     2   504   503 -0.5778085828E+00  0.3369656918E+00 -0.1824644671E-01  0.6691349405E+00  0.0000000000E+00  0.  9.
    50     1     1     2     0     0 -0.1199644742E+03  0.7542866387E+02  0.7336738459E+03  0.1248536555E+04  0.1000242599E+04  0.  9.
</event>
<event>
     7     1  0.1000000000E+01  0.4684533792E+03  0.7299270015E-02  0.1180000007E+00
     2    -1     0     0   501     0  0.0000000000E+00  0.0000000000E+00  0.1332056819E+04  0.1332056857E+04  0.3200000000E+00  0.  9.
    21    -1     0     0   500   501  0.0000000000E+00  0.0000000000E+00 -0.2078493093E+03  0.2078493093E+03  0.0000000000E+00  0.  9.
    40     3     1     2     0     0  0.0000000000E+00  0.0000000000E+00  0.0000000000E+00  0.0000000000E+00  0.1052363282E+04  0.  9.
     2     1     1     2   500     0  0.9180459705E+01 -0.1920263322E+02  0.8515307714E+00  0.2130374305E+02  0.3200000000E+00  0.  9.
    -5     1     1     2     0   503  0.7583504514E+01  0.1452170982E+01  0.4229846178E+01  0.1010012079E+02  0.4950000000E+01  0.  9.
     5     1     1     2   503     0 -0.8904799986E+00  0.3803506667E+00 -0.2069563234E+01  0.5451899966E+01  0.4950000000E+01  0.  9.
    50     1     1     2     0     0 -0.1587348422E+02  0.1737011157E+02  0.1121195696E+04  0.1503050403E+04  0.1000763227E+04  0.  9.
</event>
<event>
    10     1  0.1000000000E+01  0.3986373337E+03  0.7299270015E-02  0.1180000007E+00
    21    -1     0     0   500   501  0.0000000000E+00  0.0000000000E+00  0.2996262356E+04  0.2996262356E+04  0.0000000000E+00  0.  9.
    21    -1     0     0   503   504  0.0000000000E+00  0.0000000000E+00 -0.1334866417E+03  0.1334866417E+03  0.0000000000E+00  0.  9.
    40     3     1     2     0     0  0.0000000000E+00  0.0000000000E+00  0.0000000000E+00  0.0000000000E+00  0.1264849398E+04  0.  9.
    -2     1     1     2     0   501 -0.1406861618E+02  0.2525006427E+02  0.2365960512E+03  0.2383553766E+03  0.3200000000E+00  0.  9.
    -1     1     1     2     0   506  0.1013584686E+03 -0.1128617860E+02  0.1804286234E+03  0.2072571049E+03  0.3200000000E+00  0.  9.
     4     1     1     2   500     0 -0.3618738682E+02 -0.6380151468E+02  0.3654408158E+03  0.3727325483E+03  0.1550000000E+01  0.  9.
    21     1     1     2   505   504 -0.3268506117E+01 -0.1090874512E+01  0.6095981666E+01  0.7002437569E+01  0.0000000000E+00  0.  9.
     1     1     1     2   503     0  0.4252428851E+00 -0.3502259086E+00  0.3526303170E+01  0.3583392770E+01  0.3200000000E+00  0.  9.
    21     1     1     2   506   505 -0.1088243554E+00  0.8851868149E-01  0.1424706486E+01  0.1431595916E+01  0.0000000000E+00  0.  9.
    50     1     1     2     0     0 -0.4815037802E+02  0.5119021075E+02  0.2069263232E+04  0.2299386542E+04  0.1000194604E+04  0.  9.
</event>
<event>
     7     1  0.1000000000E+01  0.4486782428E+03  0.7299270015E-02  0.1180000007E+00
     4    -1     0     0   500     0  0.0000000000E+00  0.0000000000E+00  0.1083314670E+03  0.1083425551E+03  0.1550000000E+01  0.  9.
     2    -1     0     0   503     0  0.0000000000E+00  0.0000000000E+00 -0.2738770781E+04  0.2738770799E+04  0.3200000000E+00  0.  9.
    40     3     1     2     0     0  0.0000000000E+00  0.0000000000E+00  0.0000000000E+00  0.0000000000E+00  0.1089423458E+04  0.  9.
     2     1     1     2   500     0 -0.3999148784E+02  0.1970913772E+02 -0.3839252323E+02  0.5883755135E+02  0.3200000000E+00  0.  9.
    21     1     1     2   503   502 -0.1718874165E+02 -0.8113906630E+01 -0.2208877794E+02  0.2914107807E+02  0.0000000000E+00  0.  9.
     4     1     1     2   502     0  0.1449846063E+01  0.8750447373E+00 -0.5198582966E+01  0.5682914899E+01  0.1550000000E+01  0.  9.
    50     1     1     2     0     0  0.5573038343E+02 -0.1247027583E+02 -0.2564759429E+04  0.2753451810E+04  0.1000122271E+04  0.  9.
</event>
<event>
     9     1  0.1000000000E+01  0.3495805438E+03  0.7299270015E-02  0.1180000007E+00
     1    -1     0     0   500     0  0.0000000000E+00  0.0000000000E+00  0.8266836085E+03  0.8266836704E+03  0.3200000000E+00  0.  9.
     2    -1     0     0   504     0  0.0000000000E+00  0.0000000000E+00 -0.8393201793E+03  0.8393202403E+03  0.3200000000E+00  0.  9.
    40     3     1     2     0     0  0.0000000000E+00  0.0000000000E+00  0.0000000000E+00  0.0000000000E+00  0.1665955986E+04  0.  9.
   -11     1     1     2     0     0  0.1758493024E+02  0.1514991537E+03  0.9267938120E+02  0.1784676191E+03  0.5110000000E-03  0.  9.
    21     1     1     2   503   502  0.1272618959E+03 -0.1712102617E+03  0.6373607817E+02  0.2226450797E+03  0.0000000000E+00  0.  9.
     5     1     1     2   500     0 -0.4306050583E+02 -0.5870014281E+02  0.1508813475E+02  0.7451220195E+02  0.4950000000E+01  0.  9.
     5     1     1     2   502     0  0.1065208277E+03  0.6353053100E+01 -0.3434566247E+02  0.1122104053E+03  0.4950000000E+01  0.  9.
    21     1     1     2   504   503  0.4886456355E+01  0.2404413800E+02  0.2848701989E+02  0.3759665318E+02  0.0000000000E+00  0.  9.
    50     1     1     2     0     0 -0.2131936044E+03  0.4801405966E+02 -0.1782815223E+03  0.1040571952E+04  0.1001623094E+04  0.  9.
</event>
<event>
    11     1  0.1000000000E+01  0.3738742536E+03  0.7299270015E-02  0.1180000007E+00
    21    -1     0     0   500   501  0.0000000000E+00  0.0000000000E+00  0.1395996569E+04  0.1395996569E+04  0.0000000000E+00  0.  9.
    -1    -1     0     0     0   500  0.0000000000E+00  0.0000000000E+00 -0.3633087700E+03  0.3633089109E+03  0.3200000000E+00  0.  9.
    40     3     1     2     0     0  0.0000000000E+00  0.0000000000E+00  0.0000000000E+00  0.0000000000E+00  0.1424328502E+04  0.  9.
     2     1     1     2   505     0  0.3641189761E+02 -0.1580569479E+03  0.2865690189E+03  0.3292866989E+03  0.3200000000E+00  0.  9.
    -4     1     1     2     0   503 -0.4023230188E+02 -0.6387326970E+02  0.2208302785E+02  0.7866699000E+02  0.1550000000E+01  0.  9.
     4     1     1     2   507     0  0.2532454999E+02 -0.3470927401E+02  0.1350563296E+02  0.4506518785E+02  0.1550000000E+01  0.  9.
    -2     1     1     2     0   505  0.2958556958E+02  0.5014673737E+01  0.1926592990E+01  0.3007103324E+02  0.3200000000E+00  0.  9.
    21     1     1     2   502   501  0.4256959858E+01  0.2417929406E+02  0.1616504492E+02  0.2939504458E+02  0.0000000000E+00  0.  9.
    21     1     1     2   503   502  0.9483569492E+00 -0.2388342527E+01  0.2378262035E+01  0.3501384188E+01  0.0000000000E+00  0.  9.
    -5     1     1     2     0   507 -0.8184510795E+00  0.3553222345E+00  0.3694224861E+01  0.6240666101E+01  0.4950000000E+01  0.  9.
    50     1     1     2     0     0 -0.5547658103E+02  0.2294785441E+03  0.6863659943E+03  0.1237078475E+04  0.1001761859E+04  0.  9.
</event>
<event>
    13     1  0.1000000000E+01  0.3628894886E+03  0.7299270015E-02  0.1180000007E+00
     2    -1     0     0   500     0  0.0000000000E+00  0.0000000000E+00  0.1005475308E+04  0.1005475359E+04  0.3200000000E+00  0.  9.
     1    -1     0     0   508     0  0.0000000000E+00  0.0000000000E+00 -0.5747751708E+03  0.5747752599E+03  0.3200000000E+00  0.  9.
    40     3     1     2     0     0  0.0000000000E+00  0.0000000000E+00  0.0000000000E+00  0.0000000000E+00  0.1520424089E+04  0.  9.
    21     1     1     2   503   502 -0.1257684947E+03  0.1427023464E+01  0.2339495649E+03  0.2656165461E+03  0.0000000000E+00  0.  9.
    21     1     1     2   504   503 -0.4578202494E+02 -0.2601767177E+02  0.1055131144E+02  0.5370515083E+02  0.0000000000E+00  0.  9.
     2     1     1     2   500     0  0.7166044490E+00  0.1036186473E+02  0.2175284085E+02  0.2410747286E+02  0.3200000000E+00  0.  9.
   -24     1     1     2     0     0  0.5734846814E+02  0.1888004428E+02  0.6898009842E+02  0.1219464360E+03  0.8042000000E+02  0.  9.
     2     1     1     2   502     0 -0.3348403569E+02 -0.9820976972E+01 -0.3630564093E+02  0.5035706701E+02  0.3200000000E+00  0.  9.
    21     1     1     2   505   504  0.3035665775E+02 -0.8961223485E+01  0.2673217012E+02  0.4142993019E+02  0.0000000000E+00  0.  9.
    21     1     1     2   506   505  0.5218095592E+00  0.5671106373E-01 -0.1990036408E+00  0.5613410816E+00  0.0000000000E+00  0.  9.
    21     1     1     2   507   506  0.2048419623E+01  0.3191796375E+01  0.3661712293E+01  0.5271785653E+01  0.0000000000E+00  0.  9.
    21     1     1     2   508   507  0.1323145440E+00  0.4527695838E+00  0.7448000020E+00  0.8816090276E+00  0.0000000000E+00  0.  9.
    50     1     1     2     0     0  0.1139102813E+03  0.1042966273E+02  0.1008322834E+03  0.1016373280E+04  0.1004869725E+04  0.  9.
</event>
<event>
     6     1  0.1000000000E+01  0.4737158806E+03  0.7299270015E-02  0.1180000007E+00
    21    -1     0     0   500   501  0.0000000000E+00  0.0000000000E+00  0.9248953296E+03  0.9248953296E+03  0.0000000000E+00  0.  9.
    -2    -1     0     0     0   500  0.0000000000E+00  0.0000000000E+00 -0.2949592096E+03  0.2949593832E+03  0.3200000000E+00  0.  9.
    40     3     1     2     0     0  0.0000000000E+00  0.0000000000E+00  0.0000000000E+00  0.0000000000E+00  0.1044617636E+04  0.  9.
    -4     1     1     2     0   501 -0.2968701257E+02  0.1572754195E+02  0.4613896375E+02  0.5709536555E+02  0.1550000000E+01  0.  9.
   -15     1     1     2     0     0  0.3685601877E+01  0.8058302664E-01  0.5594037705E+01  0.6931197377E+01  0.1777100000E+01  0.  9.
   -51     1     1     2     0     0  0.2600141069E+02 -0.1580812498E+02  0.5782031185E+03  0.1155828150E+04  0.1000346888E+04  0.  9.
</event>
<event>
    10     1  0.1000000000E+01  0.3611423669E+03  0.7299270015E-02  0.1180000007E+00
    21    -1     0     0   502   503  0.0000000000E+00  0.0000000000E+00  0.4122663989E+03  0.4122663989E+03  0.0000000000E+00  0.  9.
    21    -1     0     0   503   504  0.0000000000E+00  0.0000000000E+00 -0.1433561430E+04  0.1433561430E+04  0.0000000000E+00  0.  9.
    40     3     1     2     0     0  0.0000000000E+00  0.0000000000E+00  0.0000000000E+00  0.0000000000E+00  0.1537542466E+04  0.  9.
     1     1     1     2   500     0 -0.3838645835E+02 -0.1121483234E+03 -0.1102178869E+03  0.1618605932E+03  0.3200000000E+00  0.  9.
    23     1     1     2     0     0  0.1153518462E+03 -0.1644038138E+02 -0.1245685752E+03  0.1934138460E+03  0.9118800000E+02  0.  9.
    -3     1     1     2     0   500  0.6784898636E+02 -0.1804222091E+02 -0.1244457481E+03  0.1428845720E+03  0.5000000000E+00  0.  9.
     2     1     1     2   502     0 -0.1009698020E+03  0.6072825709E+02 -0.1045567256E+03  0.1575278814E+03  0.3200000000E+00  0.  9.
    -2     1     1     2     0   505  0.4958448573E+01  0.1138021868E+02 -0.5290119344E+02  0.5433906750E+02  0.3200000000E+00  0.  9.
    21     1     1     2   505   504 -0.3471316500E+01  0.1027627326E+02  0.1620458729E+01  0.1096711981E+02  0.0000000000E+00  0.  9.
    50     1     1     2     0     0 -0.4533170430E+02  0.6424617669E+02 -0.5062253605E+03  0.1124834749E+04  0.1001402298E+04  0.  9.
</event>
<event>
    11     1  0.1000000000E+01  0.3470667303E+03  0.7299270015E-02  0.1180000007E+00
    -2    -1     0     0     0   500  0.0000000000E+00  0.0000000000E+00  0.3035011018E+03  0.3035012705E+03  0.3200000000E+00  0.  9.
     1    -1     0     0   500     0  0.0000000000E+00  0.0000000000E+00 -0.2374370103E+04  0.2374370124E+04  0.3200000000E+00  0.  9.
    40     3     1     2     0     0  0.0000000000E+00  0.0000000000E+00  0.0000000000E+00  0.0000000000E+00  0.1697791739E+04  0.  9.
    -6     1     1     2     0   502  0.2300511690E+01 -0.5773305161E+02 -0.1183445165E+03  0.2184589485E+03  0.1743000000E+03  0.  9.
     1     1     1     2   502     0  0.3659175619E+02 -0.8238010893E+02 -0.1967899045E+03  0.2164527844E+03  0.3200000000E+00  0.  9.
     4     1     1     2   504     0 -0.1689910881E+02  0.6419853821E+02 -0.9784115301E+01  0.6712051548E+02  0.1550000000E+01  0.  9.
    -2     1     1     2     0   504 -0.4051886744E+02  0.1459594930E+02  0.3820336336E+02  0.5757099727E+02  0.3200000000E+00  0.  9.
     4     1     1     2   506     0 -0.2038486634E+02 -0.8455636161E+02 -0.2796110597E+03  0.2928311259E+03  0.1550000000E+01  0.  9.
    -4     1     1     2     0   507 -0.6977691387E+01  0.4502505119E+01 -0.6503036789E+02  0.6557676401E+02  0.1550000000E+01  0.  9.
    21     1     1     2   507   506 -0.3113376241E+00 -0.8858234555E+00 -0.8824907306E+00  0.1288566723E+01  0.0000000000E+00  0.  9.
    50     1     1     2     0     0  0.4619960372E+02  0.1422583530E+03 -0.1438629910E+04  0.1758571693E+04  0.1000273232E+04  0.  9.
</event>
<event>
    10     1  0.1000000000E+01  0.3821649522E+03  0.7299270015E-02  0.1180000007E+00
     1    -1     0     0   501     0  0.0000000000E+00  0.0000000000E+00  0.9664678257E+03  0.9664678786E+03  0.3200000000E+00  0.  9.
     4    -1     0     0   504     0  0.0000000000E+00  0.0000000000E+00 -0.4807088803E+03  0.4807113792E+03  0.1550000000E+01  0.  9.
    40     3     1     2     0     0  0.0000000000E+00  0.0000000000E+00  0.0000000000E+00  0.0000000000E+00  0.1363219003E+04  0.  9.
     2     1     1     2   500     0 -0.5586749549E+02 -0.4337640688E+02  0.2095194842E+03  0.2211361715E+03  0.3200000000E+00  0.  9.
    22     1     1     2     0     0  0.1480048273E+02 -0.4261629472E+02  0.2866566117E+02  0.5345019172E+02  0.0000000000E+00  0.  9.
     5     1     1     2   503     0  0.3365976651E+02 -0.2993887725E+02  0.2879285075E+02  0.5369215033E+02  0.4950000000E+01  0.  9.
    21     1     1     2   501   500  0.5614566381E+02 -0.1821576247E+02 -0.4231261175E+02  0.7262579900E+02  0.0000000000E+00  0.  9.
    21     1     1     2   504   503  0.5434313976E+00 -0.9761305827E-01 -0.1070102363E+01  0.1204144950E+01  0.0000000000E+00  0.  9.
   -14     1     1     2     0     0  0.7512989260E+00  0.9106004294E+00  0.5435622771E+00  0.1299655019E+01  0.0000000000E+00  0.  9.
    50     1     1     2     0     0 -0.5003314788E+02  0.1333343539E+03  0.2616201011E+03  0.1043771145E+04  0.1000365813E+04  0.  9.
</event>
<event>
    10     1  0.1000000000E+01  0.4148933171E+03  0.7299270015E-02  0.1180000007E+00
    21    -1     0     0   500   501  0.0000000000E+00  0.0000000000E+00  0.7172582517E+03  0.7172582517E+03  0.0000000000E+00  0.  9.
    -1    -1     0     0     0   500  0.0000000000E+00  0.0000000000E+00 -0.4945461566E+03  0.4945462601E+03  0.3200000000E+00  0.  9.
    40     3     1     2     0     0  0.0000000000E+00  0.0000000000E+00  0.0000000000E+00  0.0000000000E+00  0.1191163086E+04  0.  9.
    21     1     1     2   502   501  0.1631674866E+02 -0.7094627286E+00  0.1936239280E+02  0.2533065098E+02  0.0000000000E+00  0.  9.
   -15     1     1     2     0     0 -0.3807054560E+02 -0.5000370312E+02  0.3192964009E+02  0.7051522367E+02  0.1777100000E+01  0.  9.
    21     1     1     2   503   502 -0.5651271674E+01 -0.4913597678E+00  0.1490140579E+02  0.1594459785E+02  0.0000000000E+00  0.  9.
    22     1     1     2     0     0 -0.3089352105E+02  0.8057265021E+01  0.1389124397E+02  0.3481803874E+02  0.0000000000E+00  0.  9.
    -2     1     1     2     0   504  0.2846586643E+02 -0.5303710642E+01  0.5029171677E+02  0.5803269832E+02  0.3200000000E+00  0.  9.
    21     1     1     2   504   503  0.4485976643E+00  0.9484952077E-02  0.1894050536E+00  0.4870360388E+00  0.0000000000E+00  0.  9.
    50     1     1     2     0     0  0.2938412557E+02  0.4844148628E+02  0.9214629069E+02  0.1006676266E+04  0.1000847722E+04  0.  9.
</event>
<event>
     8     1  0.1000000000E+01  0.3832411230E+03  0.7299270015E-02  0.1180000007E+00
    21    -1     0     0   500   501  0.0000000000E+00  0.0000000000E+00  0.9082283499E+03  0.9082283499E+03  0.0000000000E+00  0.  9.
    21    -1     0     0   501   502  0.0000000000E+00  0.0000000000E+00 -0.5060655364E+03  0.5060655364E+03  0.0000000000E+00  0.  9.
    40     3     1     2     0     0  0.0000000000E+00  0.0000000000E+00  0.0000000000E+00  0.0000000000E+00  0.1355910125E+04  0.  9.
    13     1     1     2     0     0 -0.1039322437E+01 -0.1666548846E+02  0.7671281118E+02  0.7850914125E+02  0.1056600000E+00  0.  9.
     6     1     1     2   500     0  0.1296643268E+03 -0.4021506820E+02 -0.6451418040E+02  0.2301578998E+03  0.1743000000E+03  0.  9.
    21     1     1     2   503   502 -0.1516152620E+02 -0.1245384688E+02  0.5762495054E+01  0.2044936498E+02  0.0000000000E+00  0.  9.
    -5     1     1     2     0   503 -0.3434768566E+01 -0.1141555018E+01  0.9018561717E+00  0.6198114836E+01  0.4950000000E+01  0.  9.
    50     1     1     2     0     0 -0.1100287096E+03  0.7047595856E+02  0.3832998315E+03  0.1078979366E+04  0.1000102261E+04  0.  9.
</event>
<event>
    16     1  0.1000000000E+01  0.2898302429E+03  0.7299270015E-02  0.1180000007E+00
     2    -1     0     0   501     0  0.0000000000E+00  0.0000000000E+00  0.1790675843E+04  0.1790675872E+04  0.3200000000E+00  0.  9.
     1    -1     0     0   503     0  0.0000000000E+00  0.0000000000E+00 -0.1387638756E+04  0.1387638793E+04  0.3200000000E+00  0.  9.
    40     3     1     2     0     0  0.0000000000E+00  0.0000000000E+00  0.0000000000E+00  0.0000000000E+00  0.3152656850E+04  0.  9.
     2     1     1     2   500     0 -0.2308345696E+02  0.1173240095E+03  0.2812500391E+03  0.3056132459E+03  0.3200000000E+00  0.  9.
    -6     1     1     2     0   508  0.1512096899E+02  0.8191867208E+02 -0.2715856618E+03  0.3332845245E+03  0.1743000000E+03  0.  9.
    21     1     1     2   501   500  0.8995345950E+02 -0.1381354978E+03 -0.2248297286E+03  0.2787856659E+03  0.0000000000E+00  0.  9.
   -13     1     1     2     0     0  0.8764818035E+02 -0.1952493986E+02  0.5232195161E+03  0.5308691929E+03  0.1056600000E+00  0.  9.
    21     1     1     2   506   505  0.6131949750E+02  0.2356628622E+03  0.8534048851E+02  0.2580311306E+03  0.0000000000E+00  0.  9.
     1     1     1     2   503     0 -0.4376248408E+02  0.8190283324E+02 -0.1320010871E+03  0.1613927461E+03  0.3200000000E+00  0.  9.
    23     1     1     2     0     0  0.1024290373E+03 -0.1613242855E+02  0.3733313001E+02  0.1430418711E+03  0.9118800000E+02  0.  9.
    21     1     1     2   507   506 -0.3015369756E+01  0.5055454126E+01  0.3382637061E+00  0.5896142258E+01  0.0000000000E+00  0.  9.
    11     1     1     2     0     0 -0.4437406410E+02 -0.3112421185E+02  0.3625803978E+01  0.5432237645E+02  0.5110000000E-03  0.  9.
     4     1     1     2   505     0 -0.1309986540E+02 -0.1853212243E+02 -0.1179780262E+01  0.2277806877E+02  0.1550000000E+01  0.  9.
   -14     1     1     2     0     0 -0.2002960733E+01 -0.1213435460E+01  0.1064954388E+02  0.1090399294E+02  0.0000000000E+00  0.  9.
    21     1     1     2   508   507 -0.2453272665E+00 -0.6570497793E+00  0.1400605838E+01  0.1566396052E+01  0.0000000000E+00  0.  9.
    50     1     1     2     0     0 -0.2268876153E+03 -0.2965441453E+03  0.8947595410E+02  0.1071829311E+04  0.1000697609E+04  0.  9.
</event>
<event>
    10     1  0.1000000000E+01  0.3633689701E+03  0.7299270015E-02  0.1180000007E+00
     2    -1     0     0   500     0  0.0000000000E+00  0.0000000000E+00  0.1642088691E+04  0.1642088722E+04  0.3200000000E+00  0.  9.
     2    -1     0     0   502     0  0.0000000000E+00  0.0000000000E+00 -0.3498153875E+03  0.3498155338E+03  0.3200000000E+00  0.  9.
    40     3     1     2     0     0  0.0000000000E+00  0.0000000000E+00  0.0000000000E+00  0.0000000000E+00  0.1515820660E+04  0.  9.
     4     1     1     2   500     0 -0.1859071732E+02 -0.1741947546E+03  0.1680373749E+03  0.2427517027E+03  0.1550000000E+01  0.  9.
    -5     1     1     2     0   505  0.2062246773E+02  0.5258235953E+02  0.1793916337E+03  0.1881383838E+03  0.4950000000E+01  0.  9.
   -16     1     1     2     0     0  0.1017488931E+03  0.1133785799E+03  0.1587646166E+03  0.2200312321E+03  0.0000000000E+00  0.  9.
     4     1     1     2   502     0  0.1440410984E+02 -0.1380017268E+02  0.4613142266E+02  0.5028353411E+02  0.1550000000E+01  0.  9.
     1     1     1     2   504     0 -0.1437595353E+02 -0.3760755825E+02  0.2596607328E+01  0.4034651468E+02  0.3200000000E+00  0.  9.
    21     1     1     2   505   504  0.6093749935E+00 -0.4290719025E+00 -0.1077874821E+01  0.1310440655E+01  0.0000000000E+00  0.  9.
    50     1     1     2     0     0 -0.1044181748E+03  0.6007061801E+02  0.7384295233E+03  0.1249042448E+04  0.1000158608E+04  0.  9.
</event>
<event>
    11     1  0.1000000000E+01  0.3273058022E+03  0.7299270015E-02  0.1180000007E+00
    21    -1     0     0   506   507  0.0000000000E+00  0.0000000000E+00  0.8503863765E+03  0.8503863765E+03  0.0000000000E+00  0.  9.
     2    -1     0     0   500     0  0.0000000000E+00  0.0000000000E+00 -0.1189903006E+04  0.1189903049E+04  0.3200000000E+00  0.  9.
    40     3     1     2     0     0  0.0000000000E+00  0.0000000000E+00  0.0000000000E+00  0.0000000000E+00  0.2011842290E+04  0.  9.
    -3     1     1     2     0   502 -0.1906047810E+03  0.1758744109E+03 -0.2912615833E+03  0.3899942959E+03  0.5000000000E+00  0.  9.
     4     1     1     2   500     0  0.6738130975E+02 -0.4610397955E+01  0.1158235380E+03  0.1340857604E+03  0.1550000000E+01  0.  9.
     1     1     1     2   502     0 -0.9867617313E+02 -0.3108465914E+02 -0.7053316265E+02  0.1252129091E+03  0.3200000000E+00  0.  9.
     6     1     1     2   504     0  0.1919563734E+03 -0.1071138880E+03  0.1180629600E+02  0.2807855283E+03  0.1743000000E+03  0.  9.
    -2     1     1     2     0   504 -0.1172322772E+02 -0.4124076427E+02 -0.4769677349E+02  0.6413516435E+02  0.3200000000E+00  0.  9.
    -5     1     1     2     0   507 -0.1874881414E+02  0.1588402680E+02 -0.2726947655E+02  0.3703980549E+02  0.4950000000E+01  0.  9.
     3     1     1     2   506     0  0.3557780123E+01 -0.5530648259E+00  0.1490945763E+01  0.3928943799E+01  0.5000000000E+00  0.  9.
    50     1     1     2     0     0  0.5685753279E+02 -0.7155663499E+01 -0.3187641330E+02  0.1005107018E+04  0.1002965617E+04  0.  9.
</event>
<event>
    11     1  0.1000000000E+01  0.3331486167E+03  0.7299270015E-02  0.1180000007E+00
     2    -1     0     0   500     0  0.0000000000E+00  0.0000000000E+00  0.6313916627E+03  0.6313917438E+03  0.3200000000E+00  0.  9.
     2    -1     0     0   503     0  0.0000000000E+00  0.0000000000E+00 -0.1437742439E+04  0.1437742475E+04  0.3200000000E+00  0.  9.
    40     3     1     2     0     0  0.0000000000E+00  0.0000000000E+00  0.0000000000E+00  0.0000000000E+00  0.1905548435E+04  0.  9.
     2     1     1     2   500     0  0.4064235774E+02  0.3067730752E+03 -0.1408470164E+03  0.3399992726E+03  0.3200000000E+00  0.  9.
    -1     1     1     2     0   505  0.1112823072E+03  0.4947000704E+02 -0.6929704652E+02  0.1401185803E+03  0.3200000000E+00  0.  9.
    21     1     1     2   503   502  0.5570526578E+02 -0.1610042713E+03 -0.2227734765E+02  0.1718188937E+03  0.0000000000E+00  0.  9.
     4     1     1     2   502     0  0.7954783126E+02 -0.1526493197E+02 -0.1054934536E+03  0.1330118297E+03  0.1550000000E+01  0.  9.
    -4     1     1     2     0   507  0.4742726294E+02  0.1567717930E+02  0.2022533335E+02  0.5391276129E+02  0.1550000000E+01  0.  9.
     4     1     1     2   505     0 -0.5771743954E+02 -0.3391890519E+02 -0.3551497702E+02  0.7579914940E+02  0.1550000000E+01  0.  9.
     5     1     1     2   507     0 -0.4505941514E+01  0.8096206086E+01 -0.8882386708E+01  0.1375686576E+02  0.4950000000E+01  0.  9.
    50     1     1     2     0     0 -0.2723816439E+03 -0.1698283593E+03 -0.4442638817E+03  0.1140716866E+04  0.1000415483E+04  0.  9.
</event>
<event>
     6     1  0.1000000000E+01  0.4654054871E+03  0.7299270015E-02  0.1180000007E+00
     5    -1     0     0   500     0  0.0000000000E+00  0.0000000000E+00  0.1146309263E+03  0.1147377521E+03  0.4950000000E+01  0.  9.
     2    -1     0     0   502     0  0.0000000000E+00  0.0000000000E+00 -0.2437660538E+04  0.2437660559E+04  0.3200000000E+00  0.  9.
    40     3     1     2     0     0  0.0000000000E+00  0.0000000000E+00  0.0000000000E+00  0.0000000000E+00  0.1057483126E+04  0.  9.
     2     1     1     2   500     0 -0.5372755158E+02 -0.4095778334E+01 -0.1406556024E+03  0.1506237899E+03  0.3200000000E+00  0.  9.
     3     1     1     2   502     0 -0.3286373422E+00  0.5496088742E-01 -0.6099640732E+00  0.8562005445E+00  0.5000000000E+00  0.  9.
    50     1     1     2     0     0  0.5405618892E+02  0.4040817446E+01 -0.2181764045E+04  0.2400918320E+04  0.1000687780E+04  0.  9.
</event>
<event>
     8     1  0.1000000000E+01  0.4579596288E+03  0.7299270015E-02  0.1180000007E+00
    -4    -1     0     0     0   500  0.0000000000E+00  0.0000000000E+00  0.3266108106E+03  0.3266144885E+03  0.1550000000E+01  0.  9.
     2    -1     0     0   501     0  0.0000000000E+00  0.0000000000E+00 -0.8769130380E+03  0.8769130963E+03  0.3200000000E+00  0.  9.
    40     3     1     2     0     0  0.0000000000E+00  0.0000000000E+00  0.0000000000E+00  0.0000000000E+00  0.1070348591E+04  0.  9.
    22     1     1     2     0     0 -0.2922429746E+02  0.2790575323E+01 -0.5359415593E+01  0.2984242296E+02  0.0000000000E+00  0.  9.
    -3     1     1     2     0   503 -0.1010095521E+02 -0.4593356594E+01  0.1366898396E+02  0.1761304470E+02  0.5000000000E+00  0.  9.
     3     1     1     2   503     0  0.7223576623E+01  0.5405256674E+01 -0.2921004129E+01  0.9496268955E+01  0.5000000000E+00  0.  9.
    21     1     1     2   501   500  0.2288950554E+01  0.3120760021E+00 -0.5811001535E+00  0.2382092244E+01  0.0000000000E+00  0.  9.
    51     1     1     2     0     0  0.2981272550E+02 -0.3914551404E+01 -0.5551096915E+03  0.1144193756E+04  0.1000064228E+04  0.  9.
</event>
<event>
    14     1  0.1000000000E+01  0.2888435742E+03  0.7299270015E-02  0.1180000007E+00
    21    -1     0     0   502   503  0.0000000000E+00  0.0000000000E+00  0.1072071998E+04  0.1072071998E+04  0.0000000000E+00  0.  9.
     2    -1     0     0   500     0  0.0000000000E+00  0.0000000000E+00 -0.2386416402E+04  0.2386416423E+04  0.3200000000E+00  0.  9.
    40     3     1     2     0     0  0.0000000000E+00  0.0000000000E+00  0.0000000000E+00  0.0000000000E+00  0.3199006244E+04  0.  9.
    24     1     1     2     0     0 -0.5699053915E+02 -0.6782992583E+01  0.1936176925E+02  0.1006786226E+03  0.8042000000E+02  0.  9.
    -4     1     1     2     0   504 -0.2566877880E+03  0.7435443982E+02 -0.7610195944E+01  0.2673528021E+03  0.1550000000E+01  0.  9.
     4     1     1     2   500     0  0.3886413233E+03  0.1190092090E+03 -0.8384696439E+02  0.4150156454E+03  0.1550000000E+01  0.  9.
    -2     1     1     2     0   506  0.1182820397E+01 -0.1673012322E+03 -0.4868543725E+02  0.1742454463E+03  0.3200000000E+00  0.  9.
   -11     1     1     2     0     0 -0.2929718069E+03  0.6185181882E+02 -0.9230772209E+03  0.9704275774E+03  0.5110000000E-03  0.  9.
     5     1     1     2   502     0 -0.4607556903E+02  0.6066235142E+02  0.6646945202E+02  0.1012204006E+03  0.4950000000E+01  0.  9.
    21     1     1     2   504   503 -0.2614051649E+02  0.1387198971E+03  0.2977772326E+02  0.1442679773E+03  0.0000000000E+00  0.  9.
     3     1     1     2   506     0  0.1368363600E+02  0.1656478704E+02 -0.1009290263E+03  0.1031918234E+03  0.5000000000E+00  0.  9.
   -15     1     1     2     0     0  0.3113038157E+02 -0.5415044631E+02  0.2160189220E+02  0.6611483436E+02  0.1777100000E+01  0.  9.
    13     1     1     2     0     0  0.2438105978E+01 -0.1723130773E+02  0.1057196508E+02  0.2036270946E+02  0.1056600000E+00  0.  9.
    50     1     1     2     0     0  0.2417899523E+03 -0.2256965245E+03 -0.2979783604E+03  0.1095610582E+04  0.1001084483E+04  0.  9.
</event>
<event>
    14     1  0.1000000000E+01  0.3099136103E+03  0.7299270015E-02  0.1180000007E+00
    21    -1     0     0   500   501  0.0000000000E+00  0.0000000000E+00  0.7872929301E+03  0.7872929301E+03  0.0000000000E+00  0.  9.
     1    -1     0     0   504     0  0.0000000000E+00  0.0000000000E+00 -0.1860252145E+04  0.1860252172E+04  0.3200000000E+00  0.  9.
    40     3     1     2     0     0  0.0000000000E+00  0.0000000000E+00  0.0000000000E+00  0.0000000000E+00  0.2420382943E+04  0.  9.
   -24     1     1     2     0     0 -0.7826886304E+02  0.1973802297E+03  0.1567999832E+03  0.2759322038E+03  0.8042000000E+02  0.  9.
    -3     1     1     2     0   508  0.4871005924E+02 -0.1630024281E+03 -0.9957013262E+02  0.1971215938E+03  0.5000000000E+00  0.  9.
    21     1     1     2   502   501 -0.2091227726E+02  0.1701879562E+03 -0.3929483605E+03  0.4287303089E+03  0.0000000000E+00  0.  9.
    21     1     1     2   503   502 -0.2720611156E+02 -0.1810713632E+02  0.2563131671E+01  0.3278125281E+02  0.0000000000E+00  0.  9.
    22     1     1     2     0     0 -0.1077278701E+03  0.1622251488E+02 -0.4101343703E+03  0.4243567669E+03  0.0000000000E+00  0.  9.
     2     1     1     2   500     0  0.4225874542E+02 -0.6399121962E+02 -0.6063815747E+02  0.9776382917E+02  0.3200000000E+00  0.  9.
    21     1     1     2   504   503  0.1056625080E+00  0.5267378374E+02 -0.1024188817E+03  0.1151701610E+03  0.0000000000E+00  0.  9.
    21     1     1     2   507   506 -0.2104886872E+00 -0.1577792039E+02 -0.1656780018E+02  0.2287966521E+02  0.0000000000E+00  0.  9.
     5     1     1     2   506     0  0.2040477695E+01 -0.9205768323E+01 -0.1296190985E+02  0.1677567663E+02  0.4950000000E+01  0.  9.
    21     1     1     2   508   507 -0.7959491720E+00  0.8641533365E+00 -0.2315156260E+01  0.2596198101E+01  0.0000000000E+00  0.  9.
    50     1     1     2     0     0  0.1420066149E+03 -0.1672441651E+03 -0.1347675606E+03  0.1033437446E+04  0.1000846726E+04  0.  9.
</event>
<event>
     7     1  0.1000000000E+01  0.3864891231E+03  0.7299270015E-02  0.1180000007E+00
    21    -1     0     0   500   501  0.0000000000E+00  0.0000000000E+00  0.3198940208E+03  0.3198940208E+03  0.0000000000E+00  0.  9.
     2    -1     0     0   501     0  0.0000000000E+00  0.0000000000E+00 -0.1392121029E+04  0.1392121066E+04  0.3200000000E+00  0.  9.
    40     3     1     2     0     0  0.0000000000E+00  0.0000000000E+00  0.0000000000E+00  0.0000000000E+00  0.1334662841E+04  0.  9.
     4     1     1     2   500     0  0.2739771398E+02  0.1455532954E+03 -0.1106186194E+03  0.1848655673E+03  0.1550000000E+01  0.  9.
     4     1     1     2   503     0 -0.4809570389E+02 -0.1017763637E+03  0.2313687901E+02  0.1149319042E+03  0.1550000000E+01  0.  9.
    -2     1     1     2     0   503 -0.1025914173E+02  0.1853347659E+01 -0.8304325896E+01  0.1333225844E+02  0.3200000000E+00  0.  9.
    50     1     1     2     0     0  0.3095713165E+02 -0.4563027936E+02 -0.9764409419E+03  0.1398885357E+04  0.1000201410E+04  0.  9.
</event>
<event>
    12     1  0.1000000000E+01  0.3257438131E+03  0.7299270015E-02  0.1180000007E+00
     4    -1     0     0   501     0  0.0000000000E+00  0.0000000000E+00  0.1395266357E+04  0.1395267218E+04  0.1550000000E+01  0.  9.
     4    -1     0     0   504     0  0.0000000000E+00  0.0000000000E+00 -0.7475174038E+03  0.7475190108E+03  0.1550000000E+01  0.  9.
    40     3     1     2     0     0  0.0000000000E+00  0.0000000000E+00  0.0000000000E+00  0.0000000000E+00  0.2042536197E+04  0.  9.
     4     1     1     2   500     0 -0.7849664078E+01  0.6312153340E+02  0.7311783073E+02  0.9692556358E+02  0.1550000000E+01  0.  9.
   -13     1     1     2     0     0  0.2319330775E+03 -0.1235856555E+03  0.2896977249E+03  0.3911408310E+03  0.1056600000E+00  0.  9.
     3     1     1     2   503     0 -0.1183383679E+03  0.2728053766E+03  0.4272332861E+02  0.3004201651E+03  0.5000000000E+00  0.  9.
     5     1     1     2   506     0  0.9067883165E+02 -0.9991725317E+02  0.2406948313E+02  0.1371493730E+03  0.4950000000E+01  0.  9.
    23     1     1     2     0     0 -0.7219516339E+02 -0.1411828474E+02 -0.8574612067E+01  0.1174744351E+03  0.9118800000E+02  0.  9.
    21     1     1     2   501   500 -0.4221520937E+01 -0.2181141018E+02 -0.2102361719E+02  0.3058678363E+02  0.0000000000E+00  0.  9.
    21     1     1     2   504   503 -0.2196838360E+02 -0.8307825579E+00  0.3029663030E+02  0.3743241757E+02  0.0000000000E+00  0.  9.
    -1     1     1     2     0   506 -0.6159345224E+00  0.1816660735E+00  0.3074906955E+00  0.7805949179E+00  0.3200000000E+00  0.  9.
    50     1     1     2     0     0 -0.9742287479E+02 -0.7584518984E+02  0.2171346945E+03  0.1030876065E+04  0.1000157126E+04  0.  9.
</event>
<event>
    14     1  0.1000000000E+01  0.3210285041E+03  0.7299270015E-02  0.1180000007E+00
     1    -1     0     0   500     0  0.0000000000E+00  0.0000000000E+00  0.1286753327E+04  0.1286753367E+04  0.3200000000E+00  0.  9.
     1    -1     0     0   502     0  0.0000000000E+00  0.0000000000E+00 -0.8911326790E+03  0.8911327365E+03  0.3200000000E+00  0.  9.
    40     3     1     2     0     0  0.0000000000E+00  0.0000000000E+00  0.0000000000E+00  0.0000000000E+00  0.2141651741E+04  0.  9.
     1     1     1     2   500     0  0.2264165905E+03  0.2089669115E+03 -0.3257807605E+03  0.4484025523E+03  0.3200000000E+00  0.  9.
    12     1     1     2     0     0 -0.1490020737E+03 -0.2060023565E+02 -0.6505607013E+02  0.1638849594E+03  0.0000000000E+00  0.  9.
     1     1     1     2   502     0 -0.8168165780E+02  0.7327827179E+02  0.8698966681E+02  0.1400317923E+03  0.3200000000E+00  0.  9.
     5     1     1     2   504     0 -0.6835948625E+02 -0.3296866910E+02  0.4295809003E+02  0.8734902691E+02  0.4950000000E+01  0.  9.
   -16     1     1     2     0     0 -0.3222594409E+02  0.9134519615E+02  0.9837496059E+02  0.1380582819E+03  0.0000000000E+00  0.  9.
    21     1     1     2   505   504  0.1453941154E+01  0.4428159944E+00  0.3451037473E+00  0.1558565841E+01  0.0000000000E+00  0.  9.
    -1     1     1     2     0   508  0.1133847316E+01 -0.4030962652E+01  0.2324568536E+01  0.4800030054E+01  0.3200000000E+00  0.  9.
    21     1     1     2   506   505  0.9924102298E+00 -0.1713017178E+01 -0.1073504935E+00  0.1982632100E+01  0.0000000000E+00  0.  9.
    21     1     1     2   507   506  0.1481034965E+00  0.2820978619E+00  0.6696196290E+00  0.7415553229E+00  0.0000000000E+00  0.  9.
    21     1     1     2   508   507  0.1798666174E+00 -0.1117661250E+00 -0.1548389409E+00  0.2623333078E+00  0.0000000000E+00  0.  9.
    50     1     1     2     0     0  0.1009444025E+03 -0.3148906426E+03  0.5550576585E+03  0.1190814374E+04  0.1000301944E+04  0.  9.
</event>
<event>
     7     1  0.1000000000E+01  0.4298459589E+03  0.7299270015E-02  0.1180000007E+00
    21    -1     0     0   500   501  0.0000000000E+00  0.0000000000E+00  0.1330211113E+04  0.1330211113E+04  0.0000000000E+00  0.  9.
    21    -1     0     0   501   502  0.0000000000E+00  0.0000000000E+00 -0.2437910068E+03  0.2437910068E+03  0.0000000000E+00  0.  9.
    40     3     1     2     0     0  0.0000000000E+00  0.0000000000E+00  0.0000000000E+00  0.0000000000E+00  0.1138935479E+04  0.  9.
    -1     1     1     2     0   503  0.1043367426E+02 -0.1992986708E+02  0.2052542359E+02  0.3045417170E+02  0.3200000000E+00  0.  9.
     1     1     1     2   500     0 -0.1722122107E+02 -0.2504291247E+01 -0.2425671865E+02  0.2985519602E+02  0.3200000000E+00  0.  9.
    21     1     1     2   503   502  0.3501475504E+02 -0.2482442657E+02  0.2132927005E+02  0.4792935412E+02  0.0000000000E+00  0.  9.
    50     1     1     2     0     0 -0.2822720823E+02  0.4725858490E+02  0.1068822131E+04  0.1465763398E+04  0.1001524559E+04  0.  9.
</event>
<event>
    11     1  0.1000000000E+01  0.3198795778E+03  0.7299270015E-02  0.1180000007E+00
    -1    -1     0     0     0   500  0.0000000000E+00  0.0000000000E+00  0.6597304721E+03  0.6597305497E+03  0.3200000000E+00  0.  9.
    -1    -1     0     0     0   502  0.0000000000E+00  0.0000000000E+00 -0.1780087507E+04  0.1780087536E+04  0.3200000000E+00  0.  9.
    40     3     1     2     0     0  0.0000000000E+00  0.0000000000E+00  0.0000000000E+00  0.0000000000E+00  0.2167374542E+04  0.  9.
    -5     1     1     2     0   500  0.1762261369E+03  0.4587077548E+03 -0.2576611026E+03  0.5548713382E+03  0.4950000000E+01  0.  9.
     2     1     1     2   504     0  0.9205731356E+02 -0.1815266531E+03 -0.1646527106E+03  0.2617958981E+03  0.3200000000E+00  0.  9.
     1     1     1     2   506     0 -0.8933643797E+02 -0.9564439766E+02 -0.1388249498E+03  0.1907912970E+03  0.3200000000E+00  0.  9.
    -3     1     1     2     0   502  0.1266794743E+03 -0.3059342246E+02 -0.2803983730E+02  0.1333046480E+03  0.5000000000E+00  0.  9.
    13     1     1     2     0     0 -0.5807498036E+02 -0.1064634310E+03 -0.1969165631E+02  0.1228614585E+03  0.1056600000E+00  0.  9.
    -3     1     1     2     0   504 -0.1756536306E+02  0.4616840181E+01 -0.1373080980E+02  0.2277372018E+02  0.5000000000E+00  0.  9.
    -3     1     1     2     0   506  0.1694623542E+01 -0.1102783173E+02  0.4242361211E+00  0.1117652888E+02  0.5000000000E+00  0.  9.
    50     1     1     2     0     0 -0.2316807668E+03 -0.3806885899E+02 -0.4981802046E+03  0.1142243197E+04  0.1000705145E+04  0.  9.
</event>
<event>
     9     1  0.1000000000E+01  0.3984442709E+03  0.7299270015E-02  0.1180000007E+00
     1    -1     0     0   500     0  0.0000000000E+00  0.0000000000E+00  0.1486052351E+03  0.1486055796E+03  0.3200000000E+00  0.  9.
     2    -1     0     0   502     0  0.0000000000E+00  0.0000000000E+00 -0.2695694936E+04  0.2695694955E+04  0.3200000000E+00  0.  9.
    40     3     1     2     0     0  0.0000000000E+00  0.0000000000E+00  0.0000000000E+00  0.0000000000E+00  0.1265851329E+04  0.  9.
   -16     1     1     2     0     0  0.1908966645E+01  0.1174204546E+03 -0.6744001566E+03  0.6845485947E+03  0.0000000000E+00  0.  9.
     4     1     1     2   500     0  0.3196246445E+02  0.3250570733E+02 -0.3504664106E+02  0.5752294927E+02  0.1550000000E+01  0.  9.
    22     1     1     2     0     0  0.4424044900E+00 -0.1779458137E+01 -0.1594594763E+02  0.1605102610E+02  0.0000000000E+00  0.  9.
     3     1     1     2   502     0  0.2846054568E+01 -0.1971743069E+01 -0.1607277222E+02  0.1644906697E+02  0.5000000000E+00  0.  9.
    22     1     1     2     0     0  0.6569330402E-01 -0.2025371682E+00 -0.2858786570E+00  0.3564597049E+00  0.0000000000E+00  0.  9.
    50     1     1     2     0     0 -0.3722558345E+02 -0.1459724235E+03 -0.1805338304E+04  0.2069372438E+04  0.1000181083E+04  0.  9.
</event>
<event>
     9     1  0.1000000000E+01  0.3800015711E+03  0.7299270015E-02  0.1180000007E+00
    21    -1     0     0   502   503  0.0000000000E+00  0.0000000000E+00  0.2924347804E+03  0.2924347804E+03  0.0000000000E+00  0.  9.
     2    -1     0     0   500     0  0.0000000000E+00  0.0000000000E+00 -0.1624097358E+04  0.1624097390E+04  0.3200000000E+00  0.  9.
    40     3     1     2     0     0  0.0000000000E+00  0.0000000000E+00  0.0000000000E+00  0.0000000000E+00  0.1378321566E+04  0.  9.
    22     1     1     2     0     0  0.1016509041E+03  0.7649407581E+02 -0.1750647584E+03  0.2164068381E+03  0.0000000000E+00  0.  9.
     4     1     1     2   500     0 -0.7440053396E+02 -0.1568453245E+03 -0.1269529834E+03  0.2150705879E+03  0.1550000000E+01  0.  9.
    21     1     1     2   504   503 -0.2362382961E+02  0.8289702732E+01 -0.1362555103E+02  0.2850368638E+02  0.0000000000E+00  0.  9.
    -1     1     1     2     0   504 -0.1671018420E+02 -0.2093940471E+02 -0.6732856491E+02  0.7246328021E+02  0.3200000000E+00  0.  9.
     3     1     1     2   502     0 -0.8637220327E+00  0.3463899265E+01 -0.2340002960E+01  0.4297700283E+01  0.5000000000E+00  0.  9.
    50     1     1     2     0     0  0.1394736571E+02  0.8953705140E+02 -0.9463507168E+03  0.1379790077E+04  0.1000014782E+04  0.  9.
</event>
<event>
     7     1  0.1000000000E+01  0.4694986656E+03  0.7299270015E-02  0.1180000007E+00
    -4    -1     0     0     0   500  0.0000000000E+00  0.0000000000E+00  0.2374070489E+03  0.2374121088E+03  0.1550000000E+01  0.  9.
     1    -1     0     0   503     0  0.0000000000E+00  0.0000000000E+00 -0.1162662887E+04  0.1162662931E+04  0.3200000000E+00  0.  9.
    40     3     1     2     0     0  0.0000000000E+00  0.0000000000E+00  0.0000000000E+00  0.0000000000E+00  0.1050767220E+04  0.  9.
    21     1     1     2   501   500  0.2395429060E+02  0.1790437573E+02 -0.3125620344E+01  0.3006899085E+02  0.0000000000E+00  0.  9.
    21     1     1     2   502   501 -0.1368052667E+00 -0.8715086861E+00 -0.2035877833E+02  0.2037788258E+02  0.0000000000E+00  0.  9.
    21     1     1     2   503   502 -0.2439843545E+01 -0.9704582482E+00 -0.4491105710E+01  0.5202370251E+01  0.0000000000E+00  0.  9.
   -51     1     1     2     0     0 -0.2137764179E+02 -0.1606240880E+02 -0.8972803339E+03  0.1344425796E+04  0.1000826518E+04  0.  9.
</event>
<event>
     8     1  0.1000000000E+01  0.4197004264E+03  0.7299270015E-02  0.1180000007E+00
     4    -1     0     0   500     0  0.0000000000E+00  0.0000000000E+00  0.3381346882E+03  0.3381382407E+03  0.1550000000E+01  0.  9.
     2    -1     0     0   504     0  0.0000000000E+00  0.0000000000E+00 -0.1017175250E+04  0.1017175300E+04  0.3200000000E+00  0.  9.
    40     3     1     2     0     0  0.0000000000E+00  0.0000000000E+00  0.0000000000E+00  0.0000000000E+00  0.1172935936E+04  0.  9.
    21     1     1     2   503   502 -0.8335622600E+01 -0.7437427352E+02 -0.1600540864E+01  0.7485704307E+02  0.0000000000E+00  0.  9.
     4     1     1     2   500     0  0.3329018480E+02  0.1962914018E+02 -0.4243566331E+02  0.5741713655E+02  0.1550000000E+01  0.  9.
     2     1     1     2   502     0  0.3267734407E+01 -0.3535218145E+02 -0.2987634139E+01  0.3562980746E+02  0.3200000000E+00  0.  9.
    21     1     1     2   504   503  0.3003153545E+00  0.4225588642E+00 -0.9963087444E-01  0.5278935660E+00  0.0000000000E+00  0.  9.
    50     1     1     2     0     0 -0.2852261197E+02  0.8967475594E+02 -0.6319170927E+03  0.1186881661E+04  0.1000256848E+04  0.  9.
</event>
<event>
    17     1  0.1000000000E+01  0.2808205377E+03  0.7299270015E-02  0.1180000007E+00
     2    -1     0     0   501     0  0.0000000000E+00  0.0000000000E+00  0.2792645203E+04  0.2792645222E+04  0.3200000000E+00  0.  9.
    -1    -1     0     0     0   500  0.0000000000E+00  0.0000000000E+00 -0.1176020120E+04  0.1176020163E+04  0.3200000000E+00  0.  9.
    40     3     1     2     0     0  0.0000000000E+00  0.0000000000E+00  0.0000000000E+00  0.0000000000E+00  0.3624476276E+04  0.  9.
    24     1     1     2     0     0 -0.2845527813E+02 -0.7848824925E+02 -0.2012248277E+02  0.1176537243E+03  0.8042000000E+02  0.  9.
    24     1     1     2     0     0  0.1506822373E+03 -0.2828169593E+01  0.1662338242E+03  0.2383572862E+03  0.8042000000E+02  0.  9.
    -6     1     1     2     0   503  0.7446156578E+02 -0.3713721819E+02 -0.1116450666E+03  0.2230892392E+03  0.1743000000E+03  0.  9.
     3     1     1     2   503     0  0.3781695154E+02 -0.1767764532E+03  0.1044030754E+03  0.2087589241E+03  0.5000000000E+00  0.  9.
    22     1     1     2     0     0  0.1101488085E+03 -0.4839569159E+02 -0.6245202751E+02  0.1355550025E+03  0.0000000000E+00  0.  9.
    -3     1     1     2     0   505 -0.3376302769E+03 -0.2319081339E+03  0.7885043054E+03  0.8885464963E+03  0.5000000000E+00  0.  9.
     1     1     1     2   505     0 -0.3298210570E+03  0.1161839893E+03  0.2619241232E+03  0.4369038770E+03  0.3200000000E+00  0.  9.
    16     1     1     2     0     0  0.3203824439E+03 -0.3066249384E+02 -0.1305798604E+03  0.3473272215E+03  0.0000000000E+00  0.  9.
    21     1     1     2   501   500  0.2554778172E+01  0.9648637981E+01 -0.1081928143E+02  0.1472005289E+02  0.0000000000E+00  0.  9.
   -15     1     1     2     0     0  0.3519188937E+02 -0.2747930814E+01 -0.4451710557E+01  0.3562297029E+02  0.1777100000E+01  0.  9.
    13     1     1     2     0     0 -0.4278079440E+02  0.4381638557E+02  0.3234609479E+02  0.6925570754E+02  0.1056600000E+00  0.  9.
    14     1     1     2     0     0  0.1414724016E+01  0.3673918197E+01  0.3120588692E+01  0.5023663279E+01  0.0000000000E+00  0.  9.
    22     1     1     2     0     0  0.2684711418E+01 -0.6308951495E+00  0.2497334959E+01  0.3720535712E+01  0.0000000000E+00  0.  9.
    50     1     1     2     0     0  0.3349296551E+01  0.4362523044E+03  0.5976661659E+03  0.1244130684E+04  0.1000164498E+04  0.  9.
</event>
<event>
     8     1  0.1000000000E+01  0.4742110990E+03  0.7299270015E-02  0.1180000007E+00
     1    -1     0     0   503     0  0.0000000000E+00  0.0000000000E+00  0.1806727154E+04  0.1806727183E+04  0.3200000000E+00  0.  9.
    21    -1     0     0   500   501  0.0000000000E+00  0.0000000000E+00 -0.1507959256E+03  0.1507959256E+03  0.0000000000E+00  0.  9.
    40     3     1     2     0     0  0.0000000000E+00  0.0000000000E+00  0.0000000000E+00  0.0000000000E+00  0.1043929349E+04  0.  9.
     3     1     1     2   500     0 -0.1259194017E+02 -0.1375244485E+02 -0.2586628136E+01  0.1883155176E+02  0.5000000000E+00  0.  9.
    21     1     1     2   502   501  0.1426830462E+01 -0.6832136181E+00  0.4535174998E+01  0.4803169608E+01  0.0000000000E+00  0.  9.
    21     1     1     2   503   502 -0.4926442239E+00  0.5993983025E+00  0.4109852911E+00  0.8780008918E+00  0.0000000000E+00  0.  9.
   -13     1     1     2     0     0 -0.1705294316E+00  0.2407052867E-02  0.9402967505E+00  0.9614614374E+00  0.1056600000E+00  0.  9.
   -51     1     1     2     0     0  0.1182828336E+02  0.1383385312E+02  0.1652631400E+04  0.1932048925E+04  0.1000645401E+04  0.  9.
</event>
<event>
     7     1  0.1000000000E+01  0.4385385233E+03  0.7299270015E-02  0.1180000007E+00
    21    -1     0     0   500   501  0.0000000000E+00  0.0000000000E+00  0.7915998538E+03  0.7915998538E+03  0.0000000000E+00  0.  9.
    -2    -1     0     0     0   500  0.0000000000E+00  0.0000000000E+00 -0.3919839860E+03  0.3919841166E+03  0.3200000000E+00  0.  9.
    40     3     1     2     0     0  0.0000000000E+00  0.0000000000E+00  0.0000000000E+00  0.0000000000E+00  0.1114081762E+04  0.  9.
    -2     1     1     2     0   501 -0.2021394673E+02 -0.6450099902E+02  0.5045833669E+02  0.8435122203E+02  0.3200000000E+00  0.  9.
    12     1     1     2     0     0  0.3492386045E+02 -0.2832702909E+01  0.1602516519E+02  0.3852928956E+02  0.0000000000E+00  0.  9.
   -13     1     1     2     0     0 -0.2384618068E+01 -0.2091886234E+01  0.3950918023E+01  0.5067870224E+01  0.1056600000E+00  0.  9.
   -51     1     1     2     0     0 -0.1232529566E+02  0.6942558816E+02  0.3291814479E+03  0.1055635589E+04  0.1000516989E+04  0.  9.
</event>
<event>
     7     1  0.1000000000E+01  0.3578003420E+03  0.7299270015E-02  0.1180000007E+00
     1    -1     0     0   500     0  0.0000000000E+00  0.0000000000E+00  0.2187657682E+04  0.2187657706E+04  0.3200000000E+00  0.  9.
     2    -1     0     0   502     0  0.0000000000E+00  0.0000000000E+00 -0.2823501565E+03  0.2823503378E+03  0.3200000000E+00  0.  9.
    40     3     1     2     0     0  0.0000000000E+00  0.0000000000E+00  0.0000000000E+00  0.0000000000E+00  0.1571859716E+04  0.  9.
     6     1     1     2   500     0 -0.2814424162E+03  0.2351150083E+03  0.2904178030E+03  0.4992112690E+03  0.1743000000E+03  0.  9.
     3     1     1     2   502     0  0.4336781081E+01  0.1551747918E+00 -0.1811111370E+02  0.1863046400E+02  0.5000000000E+00  0.  9.
    22     1     1     2     0     0 -0.1256137191E+01 -0.6319009062E+01  0.9467701518E+01  0.1145186134E+02  0.0000000000E+00  0.  9.
    50     1     1     2     0     0  0.2783617723E+03 -0.2289511741E+03  0.1623533135E+04  0.1940714449E+04  0.1000304362E+04  0.  9.
</event>
<event>
     9     1  0.1000000000E+01  0.3459631163E+03  0.7299270015E-02  0.1180000007E+00
     1    -1     0     0   500     0  0.0000000000E+00  0.0000000000E+00  0.3471192371E+04  0.3471192386E+04  0.3200000000E+00  0.  9.
    21    -1     0     0   502   503  0.0000000000E+00  0.0000000000E+00 -0.2111553958E+03  0.2111553958E+03  0.0000000000E+00  0.  9.
    40     3     1     2     0     0  0.0000000000E+00  0.0000000000E+00  0.0000000000E+00  0.0000000000E+00  0.1712262861E+04  0.  9.
    -4     1     1     2     0   504  0.2040078755E+03 -0.6523451728E+00  0.5856703326E+03  0.6201868911E+03  0.1550000000E+01  0.  9.
   -13     1     1     2     0     0 -0.2648181888E+02  0.9753351383E+02 -0.3281120950E+01  0.1011180002E+03  0.1056600000E+00  0.  9.
    21     1     1     2   504   503  0.1691338062E+02 -0.7115585904E+01  0.4215846645E+03  0.4219837952E+03  0.0000000000E+00  0.  9.
     1     1     1     2   500     0 -0.4168867713E+02 -0.9244717858E+02  0.3640686184E+03  0.3779292102E+03  0.3200000000E+00  0.  9.
     1     1     1     2   502     0 -0.2416362394E+02  0.1560621040E+02  0.2392267609E+02  0.3741432020E+02  0.3200000000E+00  0.  9.
    50     1     1     2     0     0 -0.1285871362E+03 -0.1292461457E+02  0.1868071805E+04  0.2123715565E+04  0.1001885141E+04  0.  9.
</event>
<event>
    10     1  0.1000000000E+01  0.3311285785E+03  0.7299270015E-02  0.1180000007E+00
     1    -1     0     0   500     0  0.0000000000E+00  0.0000000000E+00  0.1472659123E+04  0.1472659158E+04  0.3200000000E+00  0.  9.
     2    -1     0     0   503     0  0.0000000000E+00  0.0000000000E+00 -0.6394704671E+03  0.6394705471E+03  0.3200000000E+00  0.  9.
    40     3     1     2     0     0  0.0000000000E+00  0.0000000000E+00  0.0000000000E+00  0.0000000000E+00  0.1940847380E+04  0.  9.
     2     1     1     2   500     0 -0.6560391425E+02 -0.3061718745E+03 -0.1897330315E+03  0.3661199474E+03  0.3200000000E+00  0.  9.
    15     1     1     2     0     0  0.7432932509E+02  0.6362712218E+02  0.8998645249E+02  0.1329435179E+03  0.1777100000E+01  0.  9.
    22     1     1     2     0     0  0.2353324783E+02  0.9532478480E+02 -0.5183427243E+02  0.1110289158E+03  0.0000000000E+00  0.  9.
    24     1     1     2     0     0  0.2115987906E+02 -0.5050182033E+02  0.4195261205E+02  0.1059508018E+03  0.8042000000E+02  0.  9.
     3     1     1     2   502     0  0.4904749463E+01  0.5320080245E+01  0.1253727982E+01  0.7360818905E+01  0.5000000000E+00  0.  9.
    21     1     1     2   503   502 -0.4181171013E+00 -0.4067137276E+00  0.9159777733E+00  0.1085934274E+01  0.0000000000E+00  0.  9.
   -51     1     1     2     0     0 -0.5790517009E+02  0.1928084213E+03  0.9406471895E+03  0.1387639769E+04  0.1000099443E+04  0.  9.
</event>
<event>
     9     1  0.1000000000E+01  0.3665878414E+03  0.7299270015E-02  0.1180000007E+00
     2    -1     0     0   503     0  0.0000000000E+00  0.0000000000E+00  0.3158962357E+04  0.3158962373E+04  0.3200000000E+00  0.  9.
    21    -1     0     0   500   501  0.0000000000E+00  0.0000000000E+00 -0.1747406061E+03  0.1747406061E+03  0.0000000000E+00  0.  9.
    40     3     1     2     0     0  0.0000000000E+00  0.0000000000E+00  0.0000000000E+00  0.0000000000E+00  0.1485932736E+04  0.  9.
    22     1     1     2     0     0 -0.6744529569E+02 -0.1401793049E+03  0.5336804736E+03  0.5558902350E+03  0.0000000000E+00  0.  9.
    23     1     1     2     0     0 -0.3109086740E+02  0.2356634609E+03  0.5036621894E+03  0.5643534009E+03  0.9118800000E+02  0.  9.
     2     1     1     2   500     0 -0.6507863601E+01  0.2961295617E+02  0.3975516054E+02  0.4999854649E+02  0.3200000000E+00  0.  9.
    21     1     1     2   502   501  0.3556826519E-01 -0.3813903114E+01  0.2381153043E+02  0.2411505968E+02  0.0000000000E+00  0.  9.
    21     1     1     2   503   502 -0.1612168651E+00  0.1197906875E+01  0.5316419218E+01  0.5452089972E+01  0.0000000000E+00  0.  9.
    50     1     1     2     0     0  0.1051696753E+03 -0.1224811159E+03  0.1877995978E+04  0.2133893647E+04  0.1000285420E+04  0.  9.
</event>
<event>
     7     1  0.1000000000E+01  0.3840117671E+03  0.7299270015E-02  0.1180000007E+00
    -2    -1     0     0     0   500  0.0000000000E+00  0.0000000000E+00  0.4329281163E+03  0.4329282346E+03  0.3200000000E+00  0.  9.
     2    -1     0     0   500     0  0.0000000000E+00  0.0000000000E+00 -0.1053613248E+04  0.1053613296E+04  0.3200000000E+00  0.  9.
    40     3     1     2     0     0  0.0000000000E+00  0.0000000000E+00  0.0000000000E+00  0.0000000000E+00  0.1350761152E+04  0.  9.
     2     1     1     2   502     0 -0.1366304240E+03  0.2649369984E+02 -0.9377592202E+01  0.1394913278E+03  0.3200000000E+00  0.  9.
    -4     1     1     2     0   502  0.6622152445E+02 -0.1261492865E+03 -0.1528273924E+03  0.2089438852E+03  0.1550000000E+01  0.  9.
    14     1     1     2     0     0  0.9612613459E+01  0.1164832367E+02 -0.4963290046E+02  0.5187977053E+02  0.0000000000E+00  0.  9.
    50     1     1     2     0     0  0.6079628611E+02  0.8800726301E+02 -0.4088472464E+03  0.1086226547E+04  0.1000645079E+04  0.  9.
</event>
<event>
    10     1  0.1000000000E+01  0.3398205653E+03  0.7299270015E-02  0.1180000007E+00
     1    -1     0     0   500     0  0.0000000000E+00  0.0000000000E+00  0.6338396346E+03  0.6338397154E+03  0.3200000000E+00  0.  9.
     2    -1     0     0   502     0  0.0000000000E+00  0.0000000000E+00 -0.1276178211E+04  0.1276178251E+04  0.3200000000E+00  0.  9.
    40     3     1     2     0     0  0.0000000000E+00  0.0000000000E+00  0.0000000000E+00  0.0000000000E+00  0.1798768964E+04  0.  9.
     2     1     1     2   500     0  0.2585501748E+02 -0.1537783582E+03  0.1102134811E+03  0.1909538667E+03  0.3200000000E+00  0.  9.
     1     1     1     2   502     0  0.3608444595E+02  0.2137202787E+02 -0.7457527589E+02  0.8555948217E+02  0.3200000000E+00  0.  9.
    22     1     1     2     0     0  0.1461880657E+03  0.7312185891E+02 -0.2464199545E+03  0.2957034846E+03  0.0000000000E+00  0.  9.
   -24     1     1     2     0     0  0.4917578349E+02  0.1083483940E+03  0.1193442160E+02  0.1441091218E+03  0.8042000000E+02  0.  9.
     4     1     1     2   504     0 -0.6707483444E+02  0.1990186447E+02  0.1171512471E+02  0.7095607283E+02  0.1550000000E+01  0.  9.
    -3     1     1     2     0   504 -0.9818498724E-01  0.4752347329E+01  0.6388711157E+00  0.4822095160E+01  0.5000000000E+00  0.  9.
    50     1     1     2     0     0 -0.1901302932E+03 -0.7371813437E+02 -0.4558452445E+03  0.1117913843E+04  0.1000176276E+04  0.  9.
</event>
<event>
     8     1  0.1000000000E+01  0.4039914796E+03  0.7299270015E-02  0.1180000007E+00
     1    -1     0     0   500     0  0.0000000000E+00  0.0000000000E+00  0.2937062558E+04  0.2937062575E+04  0.3200000000E+00  0.  9.
    21    -1     0     0   502   503  0.0000000000E+00  0.0000000000E+00 -0.1305286835E+03  0.1305286835E+03  0.0000000000E+00  0.  9.
    40     3     1     2     0     0  0.0000000000E+00  0.0000000000E+00  0.0000000000E+00  0.0000000000E+00  0.1238339107E+04  0.  9.
     1     1     1     2   500     0 -0.2696094375E+02 -0.8624463320E+02  0.1129223142E+03  0.1446256571E+03  0.3200000000E+00  0.  9.
    -3     1     1     2     0   503  0.2057220597E+02  0.5876915346E+02  0.8940841079E+02  0.1089547749E+03  0.5000000000E+00  0.  9.
     5     1     1     2   502     0  0.9393543770E+01  0.4034863095E+02  0.2699557756E+03  0.2731608939E+03  0.4950000000E+01  0.  9.
    22     1     1     2     0     0  0.1177168671E+01  0.2516480789E+01  0.8597871053E+01  0.9035584556E+01  0.0000000000E+00  0.  9.
    50     1     1     2     0     0 -0.4181974667E+01 -0.1538963200E+02  0.2325649503E+04  0.2531814348E+04  0.1000591803E+04  0.  9.
</event>
<event>
    16     1  0.1000000000E+01  0.3186675863E+03  0.7299270015E-02  0.1180000007E+00
     2    -1     0     0   500     0  0.0000000000E+00  0.0000000000E+00  0.2494172756E+04  0.2494172777E+04  0.3200000000E+00  0.  9.
     1    -1     0     0   503     0  0.0000000000E+00  0.0000000000E+00 -0.4830251750E+03  0.4830252810E+03  0.3200000000E+00  0.  9.
    40     3     1     2     0     0  0.0000000000E+00  0.0000000000E+00  0.0000000000E+00  0.0000000000E+00  0.2195220645E+04  0.  9.
    24     1     1     2     0     0 -0.1896411531E+02  0.9044580878E+02  0.1641004588E+03  0.2047838347E+03  0.8042000000E+02  0.  9.
    21     1     1     2   503   502 -0.3125052409E+02  0.7253356281E+02  0.1067600253E+03  0.1327984036E+03  0.0000000000E+00  0.  9.
     5     1     1     2   500     0 -0.8987859029E+02  0.5505158715E+02  0.2140366089E+03  0.2386315375E+03  0.4950000000E+01  0.  9.
    -4     1     1     2     0   505 -0.1244972819E+02 -0.2515979632E+01 -0.7014473947E+02  0.7130226407E+02  0.1550000000E+01  0.  9.
     6     1     1     2   502     0  0.1421425393E+03  0.4962043252E+02  0.8125445304E+02  0.2442323994E+03  0.1743000000E+03  0.  9.
     3     1     1     2   505     0  0.6530560365E+02 -0.8251307234E+02  0.7955831330E+02  0.1319204464E+03  0.5000000000E+00  0.  9.
     4     1     1     2   507     0 -0.4693012261E+02  0.8981297357E+02  0.1557262257E+03  0.1858006095E+03  0.1550000000E+01  0.  9.
    -2     1     1     2     0   508 -0.1161766754E+03 -0.6935588599E+02  0.5220598820E+02  0.1450269852E+03  0.3200000000E+00  0.  9.
     1     1     1     2   510     0 -0.4127644672E+01 -0.7790430963E+01  0.7572778257E+01  0.1162659175E+02  0.3200000000E+00  0.  9.
    21     1     1     2   508   507 -0.2603549724E+01  0.7040998435E+01  0.1053552955E+00  0.7507678061E+01  0.0000000000E+00  0.  9.
    -1     1     1     2     0   511 -0.1592578582E+01 -0.1210102038E+02  0.2230719813E+02  0.2542999192E+02  0.3200000000E+00  0.  9.
    21     1     1     2   511   510  0.2946319772E+01 -0.8559575042E+00  0.4362519133E+01  0.5333388851E+01  0.0000000000E+00  0.  9.
    50     1     1     2     0     0  0.1135790662E+03 -0.1893730165E+03  0.1193302397E+04  0.1572803927E+04  0.1000489499E+04  0.  9.
</event>
<event>
     7     1  0.1000000000E+01  0.3803081506E+03  0.7299270015E-02  0.1180000007E+00
    21    -1     0     0   502   503  0.0000000000E+00  0.0000000000E+00  0.2162650284E+03  0.2162650284E+03  0.0000000000E+00  0.  9.
     2    -1     0     0   500     0  0.0000000000E+00  0.0000000000E+00 -0.2189187259E+04  0.2189187283E+04  0.3200000000E+00  0.  9.
    40     3     1     2     0     0  0.0000000000E+00  0.0000000000E+00  0.0000000000E+00  0.0000000000E+00  0.1376146319E+04  0.  9.
    -1     1     1     2     0   503  0.8647134472E+02  0.6142081424E+02 -0.3518403161E+03  0.3674799591E+03  0.3200000000E+00  0.  9.
     2     1     1     2   500     0 -0.1320219732E+03  0.1042641209E+03 -0.3528733078E+03  0.3909226037E+03  0.3200000000E+00  0.  9.
     5     1     1     2   502     0  0.2051846222E+02  0.1672760404E+02 -0.1157973483E+02  0.2931574300E+02  0.4950000000E+01  0.  9.
    50     1     1     2     0     0  0.2503216629E+02 -0.1824125391E+03 -0.1256628872E+04  0.1617734005E+04  0.1002021081E+04  0.  9.
</event>
<event>
    11     1  0.1000000000E+01  0.4254169485E+03  0.7299270015E-02  0.1180000007E+00
     2    -1     0     0   500     0  0.0000000000E+00  0.0000000000E+00  0.1985972605E+04  0.1985972631E+04  0.3200000000E+00  0.  9.
    -1    -1     0     0     0   500  0.0000000000E+00  0.0000000000E+00 -0.1673701898E+03  0.1673704957E+03  0.3200000000E+00  0.  9.
    40     3     1     2     0     0  0.0000000000E+00  0.0000000000E+00  0.0000000000E+00  0.0000000000E+00  0.1153070629E+04  0.  9.
   -13     1     1     2     0     0 -0.4810025693E+01 -0.1996974432E+02  0.2019139587E+03  0.2029561157E+03  0.1056600000E+00  0.  9.
     2     1     1     2   502     0  0.2041798010E+02 -0.1934225983E+02  0.4538663331E+01  0.2849067903E+02  0.3200000000E+00  0.  9.
    -2     1     1     2     0   502 -0.2575531481E+01  0.1972383953E+01  0.9283141041E-01  0.3261085485E+01  0.3200000000E+00  0.  9.
     5     1     1     2   504     0 -0.8958241424E+01  0.3334091829E+00  0.1186779487E+02  0.1567508552E+02  0.4950000000E+01  0.  9.
    21     1     1     2   505   504  0.8207192185E+01 -0.5608594947E+01 -0.3343799439E+01  0.1048786611E+02  0.0000000000E+00  0.  9.
    -3     1     1     2     0   506  0.1555378471E+01  0.1051195070E+01  0.3849631100E+01  0.4312061325E+01  0.5000000000E+00  0.  9.
    21     1     1     2   506   505 -0.1269544043E+01 -0.9415624780E+00  0.3092612637E+01  0.3473116022E+01  0.0000000000E+00  0.  9.
    50     1     1     2     0     0 -0.1256720811E+02  0.4250517337E+02  0.1596590723E+04  0.1884687117E+04  0.1000489365E+04  0.  9.
</event>
<event>
     9     1  0.1000000000E+01  0.4149735418E+03  0.7299270015E-02  0.1180000007E+00
     2    -1     0     0   500     0  0.0000000000E+00  0.0000000000E+00  0.1633228069E+03  0.1633231204E+03  0.3200000000E+00  0.  9.
     1    -1     0     0   504     0  0.0000000000E+00  0.0000000000E+00 -0.2170724995E+04  0.2170725019E+04  0.3200000000E+00  0.  9.
    40     3     1     2     0     0  0.0000000000E+00  0.0000000000E+00  0.0000000000E+00  0.0000000000E+00  0.1190847249E+04  0.  9.
    24     1     1     2     0     0 -0.3191785121E+02  0.3271925020E+02 -0.8584800437E+02  0.1262004549E+03  0.8042000000E+02  0.  9.
     5     1     1     2   500     0 -0.1142591555E+02  0.5383275070E+02 -0.4772983929E+02  0.7301477010E+02  0.4950000000E+01  0.  9.
    21     1     1     2   503   502 -0.6672009933E+00 -0.8947831205E+01 -0.2001191156E+02  0.2193138036E+02  0.0000000000E+00  0.  9.
     1     1     1     2   502     0 -0.1577980140E+01  0.6246406007E+01 -0.2221281782E+02  0.2313048388E+02  0.3200000000E+00  0.  9.
    21     1     1     2   504   503 -0.2408324229E+00  0.1147595693E+00 -0.1197277258E+01  0.1226638841E+01  0.0000000000E+00  0.  9.
    50     1     1     2     0     0  0.4582978032E+02 -0.8396533526E+02 -0.1830402338E+04  0.2088544411E+04  0.1001246469E+04  0.  9.
</event>
<event>
    11     1  0.1000000000E+01  0.3520734292E+03  0.7299270015E-02  0.1180000007E+00
    -3    -1     0     0     0   500  0.0000000000E+00  0.0000000000E+00  0.8184933256E+03  0.8184934784E+03  0.5000000000E+00  0.  9.
    21    -1     0     0   500   501  0.0000000000E+00  0.0000000000E+00 -0.8173685930E+03  0.8173685930E+03  0.0000000000E+00  0.  9.
    40     3     1     2     0     0  0.0000000000E+00  0.0000000000E+00  0.0000000000E+00  0.0000000000E+00  0.1635861685E+04  0.  9.
    -5     1     1     2     0   502  0.6569843665E+02 -0.9714172090E+02 -0.1401280414E+03  0.1827926941E+03  0.4950000000E+01  0.  9.
    21     1     1     2   502   501 -0.1283009199E+03  0.8199642634E+02 -0.1549196040E+03  0.2172202193E+03  0.0000000000E+00  0.  9.
   -24     1     1     2     0     0  0.8375501581E+02  0.8200257633E+02  0.1072354596E+03  0.1780621953E+03  0.8042000000E+02  0.  9.
     4     1     1     2   504     0 -0.5101688197E+01 -0.3128853222E+01 -0.9181283211E+01  0.1106866778E+02  0.1550000000E+01  0.  9.
    -1     1     1     2     0   506 -0.1343675673E+02 -0.1340261512E+02  0.1642752323E+02  0.2510263817E+02  0.3200000000E+00  0.  9.
    21     1     1     2   505   504 -0.9516102314E+00  0.2309421852E+01 -0.3181906590E+00  0.2517982649E+01  0.0000000000E+00  0.  9.
    21     1     1     2   506   505  0.5520571770E+00  0.6435364605E+00  0.7060762037E+00  0.1103381125E+01  0.0000000000E+00  0.  9.
    50     1     1     2     0     0 -0.2214534612E+01 -0.5327877175E+02  0.1813027928E+03  0.1017994293E+04  0.1000299028E+04  0.  9.
</event>
<event>
    10     1  0.1000000000E+01  0.3581748464E+03  0.7299270015E-02  0.1180000007E+00
    21    -1     0     0   500   501  0.0000000000E+00  0.0000000000E+00  0.4681247795E+03  0.4681247795E+03  0.0000000000E+00  0.  9.
     2    -1     0     0   502     0  0.0000000000E+00  0.0000000000E+00 -0.1312862845E+04  0.1312862884E+04  0.3200000000E+00  0.  9.
    40     3     1     2     0     0  0.0000000000E+00  0.0000000000E+00  0.0000000000E+00  0.0000000000E+00  0.1567907732E+04  0.  9.
     2     1     1     2   500     0  0.4546133707E+02 -0.1108261751E+03 -0.3584164234E+03  0.3779042329E+03  0.3200000000E+00  0.  9.
     2     1     1     2   504     0 -0.1015489702E+02 -0.1090807258E+03 -0.2702306061E+02  0.1128364963E+03  0.3200000000E+00  0.  9.
    21     1     1     2   502   501  0.4932314563E+02 -0.6224597189E+02 -0.6575865312E+02  0.1031093312E+03  0.0000000000E+00  0.  9.
    -2     1     1     2     0   506 -0.5473957762E+01 -0.3951316390E+02 -0.5258884804E+01  0.4023695570E+02  0.3200000000E+00  0.  9.
    21     1     1     2   505   504  0.2054902586E+02  0.6670050473E+01 -0.1770054125E+02  0.2792957568E+02  0.0000000000E+00  0.  9.
    21     1     1     2   506   505 -0.9878505214E+00 -0.1682729257E+00  0.1260945288E+01  0.1610635728E+01  0.0000000000E+00  0.  9.
    50     1     1     2     0     0 -0.9871680325E+02  0.3151642591E+03 -0.3718414471E+03  0.1117360436E+04  0.1000577215E+04  0.  9.
</event>
<event>
     7     1  0.1000000000E+01  0.5136341412E+03  0.7299270015E-02  0.1180000007E+00
    21    -1     0     0   504   500  0.0000000000E+00  0.0000000000E+00  0.5457014729E+03  0.5457014729E+03  0.0000000000E+00  0.  9.
    21    -1     0     0   500   501  0.0000000000E+00  0.0000000000E+00 -0.4654923340E+03  0.4654923340E+03  0.0000000000E+00  0.  9.
    40     3     1     2     0     0  0.0000000000E+00  0.0000000000E+00  0.0000000000E+00  0.0000000000E+00  0.1008007643E+04  0.  9.
    21     1     1     2   502   501  0.1326606421E+01  0.8292771414E+00 -0.1839330908E+01  0.2414689082E+01  0.0000000000E+00  0.  9.
    21     1     1     2   503   502 -0.4481355844E+01  0.1162394572E+01  0.2912447936E+01  0.5469557963E+01  0.0000000000E+00  0.  9.
    21     1     1     2   504   503 -0.3275716780E-01  0.1344116776E+00  0.5148290575E-01  0.1476144326E+00  0.0000000000E+00  0.  9.
    50     1     1     2     0     0  0.3187506591E+01 -0.2126083391E+01  0.7908453897E+02  0.1003161945E+04  0.1000032421E+04  0.  9.
</event>
<event>
     9     1  0.1000000000E+01  0.3736080381E+03  0.7299270015E-02  0.1180000007E+00
     1    -1     0     0   500     0  0.0000000000E+00  0.0000000000E+00  0.9162921078E+03  0.9162921637E+03  0.3200000000E+00  0.  9.
     3    -1     0     0   503     0  0.0000000000E+00  0.0000000000E+00 -0.5551546377E+03  0.5551548629E+03  0.5000000000E+00  0.  9.
    40     3     1     2     0     0  0.0000000000E+00  0.0000000000E+00  0.0000000000E+00  0.0000000000E+00  0.1426441755E+04  0.  9.
    13     1     1     2     0     0  0.1961162548E+02 -0.1916987349E+03 -0.9640680842E+02  0.2154699624E+03  0.1056600000E+00  0.  9.
     2     1     1     2   500     0 -0.2213512161E+02  0.5577843839E+02 -0.7710481157E+02  0.9770594744E+02  0.3200000000E+00  0.  9.
     1     1     1     2   502     0 -0.1686015512E+01  0.6108162263E-01  0.5229794919E+00  0.1795072929E+01  0.3200000000E+00  0.  9.
   -13     1     1     2     0     0  0.1544650551E+02 -0.2014896726E+01  0.6887410296E+01  0.1703237875E+02  0.1056600000E+00  0.  9.
    21     1     1     2   503   502 -0.6321261649E-01  0.1470928803E+00 -0.1478809446E+00  0.2179470672E+00  0.0000000000E+00  0.  9.
   -51     1     1     2     0     0 -0.1117378125E+02  0.1377270187E+03  0.5273865812E+03  0.1139225718E+04  0.1000302477E+04  0.  9.
</event>
<event>
     7     1  0.1000000000E+01  0.5077496813E+03  0.7299270015E-02  0.1180000007E+00
     4    -1     0     0   501     0  0.0000000000E+00  0.0000000000E+00  0.9590313537E+02  0.9591566022E+02  0.1550000000E+01  0.  9.
     2    -1     0     0   503     0  0.0000000000E+00  0.0000000000E+00 -0.2666021221E+04  0.2666021240E+04  0.3200000000E+00  0.  9.
    40     3     1     2     0     0  0.0000000000E+00  0.0000000000E+00  0.0000000000E+00  0.0000000000E+00  0.1011330049E+04  0.  9.
     2     1     1     2   500     0 -0.9178666985E+01  0.1166306206E+01 -0.3485596609E+02  0.3606451123E+02  0.3200000000E+00  0.  9.
    21     1     1     2   501   500  0.1101857421E+00  0.1393493497E+00 -0.1429760712E+01  0.1440754952E+01  0.0000000000E+00  0.  9.
     2     1     1     2   503     0 -0.6054660857E+00 -0.2838867523E+00 -0.1234552605E+01  0.1440035070E+01  0.3200000000E+00  0.  9.
    50     1     1     2     0     0  0.9673947329E+01 -0.1021768803E+01 -0.2532597806E+04  0.2722991599E+04  0.1000268450E+04  0.  9.
</event>
<event>
    11     1  0.1000000000E+01  0.4019207030E+03  0.7299270015E-02  0.1180000007E+00
     1    -1     0     0   500     0  0.0000000000E+00  0.0000000000E+00  0.2344697875E+04  0.2344697896E+04  0.3200000000E+00  0.  9.
     1    -1     0     0   506     0  0.0000000000E+00  0.0000000000E+00 -0.1661494354E+03  0.1661497436E+03  0.3200000000E+00  0.  9.
    40     3     1     2     0     0  0.0000000000E+00  0.0000000000E+00  0.0000000000E+00  0.0000000000E+00  0.1248311888E+04  0.  9.
    21     1     1     2   503   502  0.2030320681E+00  0.1019118153E+01  0.1891226607E+01  0.2157906835E+01  0.0000000000E+00  0.  9.
    21     1     1     2   504   503 -0.5739524797E+01  0.8971215252E+02  0.1642774090E+03  0.1872652652E+03  0.0000000000E+00  0.  9.
    11     1     1     2     0     0 -0.5951321827E+02  0.7715627862E+02  0.1260111973E+03  0.1592913567E+03  0.5110000000E-03  0.  9.
    21     1     1     2   505   504 -0.1789088951E+02 -0.2002202139E+02  0.7600241266E+02  0.8060602954E+02  0.0000000000E+00  0.  9.
     2     1     1     2   500     0  0.6698419217E+01  0.4899187157E+01  0.2965523781E+02  0.3079620730E+02  0.3200000000E+00  0.  9.
    21     1     1     2   506   505  0.3034043813E+00 -0.8542323955E+00  0.2954944541E+01  0.3090867911E+01  0.0000000000E+00  0.  9.
     1     1     1     2   502     0  0.2529030962E+00 -0.2158929538E+00  0.1024921707E+01  0.1124025911E+01  0.3200000000E+00  0.  9.
    50     1     1     2     0     0  0.7568587382E+02 -0.1516945897E+03  0.1776731090E+04  0.2046515980E+04  0.1001356427E+04  0.  9.
</event>
<event>
    11     1  0.1000000000E+01  0.3617165627E+03  0.7299270015E-02  0.1180000007E+00
    -2    -1     0     0     0   500  0.0000000000E+00  0.0000000000E+00  0.3086578654E+03  0.3086580313E+03  0.3200000000E+00  0.  9.
     2    -1     0     0   500     0  0.0000000000E+00  0.0000000000E+00 -0.1900634227E+04  0.1900634254E+04  0.3200000000E+00  0.  9.
    40     3     1     2     0     0  0.0000000000E+00  0.0000000000E+00  0.0000000000E+00  0.0000000000E+00  0.1531856281E+04  0.  9.
     3     1     1     2   502     0  0.1432659104E+02  0.1471397459E+02 -0.6854346651E+02  0.7155563612E+02  0.5000000000E+00  0.  9.
    -5     1     1     2     0   502 -0.3006178732E+03 -0.8579685195E+02 -0.6769572997E+03  0.7456727792E+03  0.4950000000E+01  0.  9.
     4     1     1     2   504     0  0.3527965768E+02 -0.8329787094E+01 -0.2424151209E+02  0.4363591419E+02  0.1550000000E+01  0.  9.
    21     1     1     2   505   504  0.2756066048E+01  0.3199265830E+01 -0.6451400071E+01  0.7710497052E+01  0.0000000000E+00  0.  9.
    -2     1     1     2     0   506 -0.3816812975E+01 -0.8203359076E+01  0.2892853666E+01  0.9504428639E+01  0.3200000000E+00  0.  9.
   -15     1     1     2     0     0  0.2504957730E+01  0.1000930688E+02 -0.6293153795E+00  0.1048881117E+02  0.1777100000E+01  0.  9.
    21     1     1     2   506   505 -0.9151577184E+00 -0.1394484739E+01  0.7129100227E+00  0.1813929998E+01  0.0000000000E+00  0.  9.
   -51     1     1     2     0     0  0.2504825714E+03  0.7580193556E+02 -0.8187591318E+03  0.1318910289E+04  0.1000335135E+04  0.  9.
</event>
<event>
     7     1  0.1000000000E+01  0.4779254335E+03  0.7299270015E-02  0.1180000007E+00
     2    -1     0     0   502     0  0.0000000000E+00  0.0000000000E+00  0.1790637827E+04  0.1790637855E+04  0.3200000000E+00  0.  9.
    21    -1     0     0   500   501  0.0000000000E+00  0.0000000000E+00 -0.1507123378E+03  0.1507123378E+03  0.0000000000E+00  0.  9.
    40     3     1     2     0     0  0.0000000000E+00  0.0000000000E+00  0.0000000000E+00  0.0000000000E+00  0.1038982658E+04  0.  9.
    21     1     1     2   502   501 -0.1265072063E+01 -0.5035637521E+01  0.1228622177E+02  0.1333826443E+02  0.0000000000E+00  0.  9.
   -15     1     1     2     0     0  0.2911907205E+01 -0.2531284386E+02  0.4308763401E+02  0.5008913612E+02  0.1777100000E+01  0.  9.
     3     1     1     2   500     0  0.5947593029E+01 -0.3290004342E+01  0.8364840050E+01  0.1078974237E+02  0.5000000000E+00  0.  9.
    50     1     1     2     0     0 -0.7594428171E+01  0.3363848573E+02  0.1576186793E+04  0.1867133050E+04  0.1000315849E+04  0.  9.
</event>
<event>
    10     1  0.1000000000E+01  0.3404127612E+03  0.7299270015E-02  0.1180000007E+00
     1    -1     0     0   500     0  0.0000000000E+00  0.0000000000E+00  0.7488936817E+03  0.7488937500E+03  0.3200000000E+00  0.  9.
     2    -1     0     0   504     0  0.0000000000E+00  0.0000000000E+00 -0.1069569137E+04  0.1069569185E+04  0.3200000000E+00  0.  9.
    40     3     1     2     0     0  0.0000000000E+00  0.0000000000E+00  0.0000000000E+00  0.0000000000E+00  0.1789964999E+04  0.  9.
     4     1     1     2   500     0  0.4313361488E+02 -0.4631575639E+03 -0.2653236768E+03  0.5355132993E+03  0.1550000000E+01  0.  9.
     3     1     1     2   502     0 -0.2488115698E+02  0.4477200326E+02  0.3888689884E+02  0.6431209179E+02  0.5000000000E+00  0.  9.
    21     1     1     2   503   502  0.5427632540E+02  0.5744621872E+02  0.6664389023E+02  0.1033798609E+03  0.0000000000E+00  0.  9.
    15     1     1     2     0     0 -0.1298034626E+02  0.4792830308E+01 -0.1522926284E+02  0.2065306618E+02  0.1777100000E+01  0.  9.
   -15     1     1     2     0     0  0.4401792327E+01  0.1116439321E+02 -0.2048826630E+02  0.2381064030E+02  0.1777100000E+01  0.  9.
    21     1     1     2   504   503 -0.1296779286E+00  0.1447021031E+01 -0.8144678158E-02  0.1452842925E+01  0.0000000000E+00  0.  9.
    50     1     1     2     0     0 -0.6382055143E+02  0.3435350974E+03 -0.1251568943E+03  0.1069341134E+04  0.1002864291E+04  0.  9.
</event>
<event>
     7     1  0.1000000000E+01  0.4091043904E+03  0.7299270015E-02  0.1180000007E+00
     1    -1     0     0   500     0  0.0000000000E+00  0.0000000000E+00  0.7514989333E+03  0.7514990014E+03  0.3200000000E+00  0.  9.
     2    -1     0     0   503     0  0.0000000000E+00  0.0000000000E+00 -0.4912108177E+03  0.4912109220E+03  0.3200000000E+00  0.  9.
    40     3     1     2     0     0  0.0000000000E+00  0.0000000000E+00  0.0000000000E+00  0.0000000000E+00  0.1215145280E+04  0.  9.
     2     1     1     2   500     0  0.8730612508E+02 -0.1379673649E+03  0.6821667796E+02  0.1769490627E+03  0.3200000000E+00  0.  9.
     5     1     1     2   502     0  0.8430158784E+01  0.3042415647E+02  0.1878010675E+02  0.3706604624E+02  0.4950000000E+01  0.  9.
    21     1     1     2   503   502  0.6432016705E+00 -0.2495073726E+01  0.2267404930E+00  0.2586602509E+01  0.0000000000E+00  0.  9.
    50     1     1     2     0     0 -0.9637948553E+02  0.1100382821E+03  0.1730645904E+03  0.1026108212E+04  0.1000774341E+04  0.  9.
</event>
<event>
    16     1  0.1000000000E+01  0.2946192474E+03  0.7299270015E-02  0.1180000007E+00
     1    -1     0     0   502     0  0.0000000000E+00  0.0000000000E+00  0.3159494969E+04  0.3159494985E+04  0.3200000000E+00  0.  9.
     1    -1     0     0   505     0  0.0000000000E+00  0.0000000000E+00 -0.6856585011E+03  0.6856585758E+03  0.3200000000E+00  0.  9.
    40     3     1     2     0     0  0.0000000000E+00  0.0000000000E+00  0.0000000000E+00  0.0000000000E+00  0.2943694793E+04  0.  9.
     3     1     1     2   500     0  0.8432162929E+02  0.2786307473E+02 -0.2279921699E+01  0.8883656985E+02  0.5000000000E+00  0.  9.
     1     1     1     2   504     0  0.5605915468E+02  0.4831252758E+02 -0.4450697355E+02  0.8635798885E+02  0.3200000000E+00  0.  9.
     3     1     1     2   507     0  0.2660325283E+02  0.9138579696E+02 -0.1787438622E+02  0.9684441455E+02  0.5000000000E+00  0.  9.
   -13     1     1     2     0     0  0.2945715746E+03  0.2391768261E+03  0.6533055542E+03  0.7555038881E+03  0.1056600000E+00  0.  9.
     3     1     1     2   509     0 -0.1327980304E+03 -0.7353963091E+02  0.7925729272E+03  0.8069792371E+03  0.5000000000E+00  0.  9.
    21     1     1     2   501   500 -0.3037581286E+03  0.1266582050E+03  0.2937500301E+03  0.4411353327E+03  0.0000000000E+00  0.  9.
    -2     1     1     2     0   507 -0.4231175247E+02 -0.3491887009E+02 -0.2797157283E+02  0.6158021738E+02  0.3200000000E+00  0.  9.
    21     1     1     2   502   501 -0.2350540358E+02  0.3706724630E+02 -0.5027366476E+02  0.6673774130E+02  0.0000000000E+00  0.  9.
    21     1     1     2   505   504  0.1125308215E+02 -0.3882184622E+02  0.1313962829E+02  0.4250196976E+02  0.0000000000E+00  0.  9.
    -3     1     1     2     0   510 -0.6917027338E+01 -0.2977119433E+01  0.9467179396E+01  0.1210727025E+02  0.5000000000E+00  0.  9.
    21     1     1     2   510   509 -0.2918756543E+01 -0.2495175698E+01  0.8935521746E+01  0.9725666579E+01  0.0000000000E+00  0.  9.
    13     1     1     2     0     0  0.5849412387E+00  0.3376955660E-01 -0.3160347274E+00  0.6740464525E+00  0.1056600000E+00  0.  9.
    51     1     1     2     0     0  0.3881546415E+02 -0.4177448039E+03  0.8458881804E+03  0.1376169218E+04  0.1001148111E+04  0.  9.
</event>
<event>
     9     1  0.1000000000E+01  0.3621872223E+03  0.7299270015E-02  0.1180000007E+00
     2    -1     0     0   500     0  0.0000000000E+00  0.0000000000E+00  0.9159194525E+03  0.9159195084E+03  0.3200000000E+00  0.  9.
     1    -1     0     0   503     0  0.0000000000E+00  0.0000000000E+00 -0.6366442631E+03  0.6366443435E+03  0.3200000000E+00  0.  9.
    40     3     1     2     0     0  0.0000000000E+00  0.0000000000E+00  0.0000000000E+00  0.0000000000E+00  0.1527239301E+04  0.  9.
     4     1     1     2   500     0 -0.6335774819E+02  0.2373282525E+02  0.2048642798E+03  0.2157526985E+03  0.1550000000E+01  0.  9.
     3     1     1     2   502     0  0.8692423674E+02 -0.1223868780E+02  0.1760090291E+03  0.1966851208E+03  0.5000000000E+00  0.  9.
    -4     1     1     2     0   505  0.3417689547E+02 -0.4008831289E+02  0.3143567061E+02  0.6136560031E+02  0.1550000000E+01  0.  9.
     2     1     1     2   505     0  0.2879446832E+02  0.1088952948E+02 -0.3839805014E+02  0.4921601277E+02  0.3200000000E+00  0.  9.
    21     1     1     2   503   502 -0.4898965429E+01 -0.2777062769E+01 -0.2194443756E+02  0.2265546909E+02  0.0000000000E+00  0.  9.
    50     1     1     2     0     0 -0.8163888692E+02  0.2048170873E+02 -0.7269130249E+02  0.1006888950E+04  0.1000728197E+04  0.  9.
</event>
<event>
     7     1  0.1000000000E+01  0.4627322301E+03  0.7299270015E-02  0.1180000007E+00
     2    -1     0     0   501     0  0.0000000000E+00  0.0000000000E+00  0.1992898838E+04  0.1992898864E+04  0.3200000000E+00  0.  9.
    -1    -1     0     0     0   500  0.0000000000E+00  0.0000000000E+00 -0.1414102383E+03  0.1414106003E+03  0.3200000000E+00  0.  9.
    40     3     1     2     0     0  0.0000000000E+00  0.0000000000E+00  0.0000000000E+00  0.0000000000E+00  0.1061728239E+04  0.  9.
    -5     1     1     2     0   503 -0.7005295669E+01  0.3251066043E+02  0.1432278657E+03  0.1471215186E+03  0.4950000000E+01  0.  9.
     2     1     1     2   503     0  0.6481389779E+01  0.1999500898E-01  0.1481912234E+02  0.1617768834E+02  0.3200000000E+00  0.  9.
    21     1     1     2   501   500 -0.7628896520E+01 -0.7969236191E+00  0.1096191700E+02  0.1337904233E+02  0.0000000000E+00  0.  9.
    50     1     1     2     0     0  0.8152802410E+01 -0.3173373182E+02  0.1682479695E+04  0.1957631215E+04  0.1000254244E+04  0.  9.
</event>
<event>
    11     1  0.1000000000E+01  0.3429548062E+03  0.7299270015E-02  0.1180000007E+00
     2    -1     0     0   500     0  0.0000000000E+00  0.0000000000E+00  0.9711226112E+03  0.9711226640E+03  0.3200000000E+00  0.  9.
    21    -1     0     0   502   503  0.0000000000E+00  0.0000000000E+00 -0.7913904381E+03  0.7913904381E+03  0.0000000000E+00  0.  9.
    40     3     1     2     0     0  0.0000000000E+00  0.0000000000E+00  0.0000000000E+00  0.0000000000E+00  0.1753325064E+04  0.  9.
    -3     1     1     2     0   503  0.2633463856E+03  0.3678094773E+03 -0.2008858278E+02  0.4528122476E+03  0.5000000000E+00  0.  9.
   -15     1     1     2     0     0  0.6772765720E+01  0.3740466396E+02 -0.4740429822E+02  0.6078901887E+02  0.1777100000E+01  0.  9.
    -2     1     1     2     0   506 -0.1331530922E+02 -0.7713699421E+02  0.2269196166E+02  0.8150117091E+02  0.3200000000E+00  0.  9.
     4     1     1     2   500     0 -0.3042320140E+02 -0.4563384838E+02  0.4538863901E+01  0.5505472811E+02  0.1550000000E+01  0.  9.
     5     1     1     2   502     0 -0.1974878794E+02  0.5703058608E+00 -0.9318625890E+00  0.2038898579E+02  0.4950000000E+01  0.  9.
     1     1     1     2   505     0 -0.9655390002E+01  0.1932213076E+01  0.3426791098E+01  0.1043097794E+02  0.3200000000E+00  0.  9.
    21     1     1     2   506   505  0.1952354730E+00 -0.8801715773E+00 -0.3496261218E+00  0.9669836195E+00  0.0000000000E+00  0.  9.
    50     1     1     2     0     0 -0.1971716982E+03 -0.2840656460E+03  0.2178489261E+03  0.1080568989E+04  0.1000300563E+04  0.  9.
</event>
<event>
    11     1  0.1000000000E+01  0.3956462360E+03  0.7299270015E-02  0.1180000007E+00
    21    -1     0     0   500   501  0.0000000000E+00  0.0000000000E+00  0.1369703850E+04  0.1369703850E+04  0.0000000000E+00  0.  9.
    21    -1     0     0   501   502  0.0000000000E+00  0.0000000000E+00 -0.2993842118E+03  0.2993842118E+03  0.0000000000E+00  0.  9.
    40     3     1     2     0     0  0.0000000000E+00  0.0000000000E+00  0.0000000000E+00  0.0000000000E+00  0.1280730584E+04  0.  9.
    -1     1     1     2     0   506  0.4614357433E+02  0.1822009900E+02  0.9616620409E+02  0.1082092541E+03  0.3200000000E+00  0.  9.
    21     1     1     2   503   502 -0.7957073684E+02  0.9136388513E+02  0.1484875481E+03  0.1916439762E+03  0.0000000000E+00  0.  9.
    21     1     1     2   504   503 -0.3890105947E+02  0.2320745461E+02  0.6329802715E+02  0.7783648643E+02  0.0000000000E+00  0.  9.
    21     1     1     2   505   504  0.9531741064E+01 -0.4581442751E+01 -0.5946942879E+01  0.1213300602E+02  0.0000000000E+00  0.  9.
     1     1     1     2   500     0 -0.4957659938E+01  0.8193926057E+01  0.6718034110E+01  0.1170270048E+02  0.3200000000E+00  0.  9.
   -12     1     1     2     0     0  0.1120266990E+01  0.5499545268E+00  0.2721944597E+00  0.1277316693E+01  0.0000000000E+00  0.  9.
    21     1     1     2   506   505 -0.8179515741E-02  0.1731980432E-01  0.7096830894E-02  0.2042657847E-01  0.0000000000E+00  0.  9.
    50     1     1     2     0     0  0.6664205339E+02 -0.1369711964E+03  0.7613174759E+03  0.1266264895E+04  0.1000310058E+04  0.  9.
</event>
<event>
     6     1  0.1000000000E+01  0.4676862021E+03  0.7299270015E-02  0.1180000007E+00
    21    -1     0     0   500   501  0.0000000000E+00  0.0000000000E+00  0.1891899106E+03  0.1891899106E+03  0.0000000000E+00  0.  9.
    -1    -1     0     0     0   500  0.0000000000E+00  0.0000000000E+00 -0.1466766225E+04  0.1466766260E+04  0.3200000000E+00  0.  9.
    40     3     1     2     0     0  0.0000000000E+00  0.0000000000E+00  0.0000000000E+00  0.0000000000E+00  0.1053560439E+04  0.  9.
    -5     1     1     2     0   502 -0.3777523865E+02 -0.3130563543E+02 -0.4423704617E+02  0.6624522789E+02  0.4950000000E+01  0.  9.
    21     1     1     2   502   501 -0.5823430999E+00  0.9553507850E+00 -0.7239705533E+00  0.1332648480E+01  0.0000000000E+00  0.  9.
    50     1     1     2     0     0  0.3835758175E+02  0.3035028465E+02 -0.1232615298E+04  0.1588378294E+04  0.1000606161E+04  0.  9.
</event>
<event>
     8     1  0.1000000000E+01  0.4256405303E+03  0.7299270015E-02  0.1180000007E+00
     1    -1     0     0   501     0  0.0000000000E+00  0.0000000000E+00  0.1873648732E+03  0.1873651464E+03  0.3200000000E+00  0.  9.
     2    -1     0     0   504     0  0.0000000000E+00  0.0000000000E+00 -0.1771765935E+04  0.1771765964E+04  0.3200000000E+00  0.  9.
    40     3     1     2     0     0  0.0000000000E+00  0.0000000000E+00  0.0000000000E+00  0.0000000000E+00  0.1152331542E+04  0.  9.
    21     1     1     2   501   500  0.1127391665E+02  0.2413716673E+02 -0.1099810369E+03  0.1131615327E+03  0.0000000000E+00  0.  9.
     4     1     1     2   500     0  0.5649148829E+02  0.6415565350E+02 -0.2191600611E+03  0.2352461923E+03  0.1550000000E+01  0.  9.
     1     1     1     2   503     0  0.1743603431E+01 -0.5578999408E-01 -0.9219188621E+00  0.1998899657E+01  0.3200000000E+00  0.  9.
    21     1     1     2   504   503  0.2941034132E+00 -0.2669499248E+00  0.1701027992E+00  0.4320810599E+00  0.0000000000E+00  0.  9.
    50     1     1     2     0     0 -0.6980311179E+02 -0.8797008030E+02 -0.1254508148E+04  0.1608292405E+04  0.1000101273E+04  0.  9.
</event>
<event>
     8     1  0.1000000000E+01  0.4663388409E+03  0.7299270015E-02  0.1180000007E+00
    21    -1     0     0   500   501  0.0000000000E+00  0.0000000000E+00  0.9994178741E+02  0.9994178741E+02  0.0000000000E+00  0.  9.
     2    -1     0     0   503     0  0.0000000000E+00  0.0000000000E+00 -0.2787911264E+04  0.2787911283E+04  0.3200000000E+00  0.  9.
    40     3     1     2     0     0  0.0000000000E+00  0.0000000000E+00  0.0000000000E+00  0.0000000000E+00  0.1055706136E+04  0.  9.
    21     1     1     2   502   501 -0.5246999918E+01 -0.8538460008E+01 -0.7003215796E+01  0.1222625613E+02  0.0000000000E+00  0.  9.
    21     1     1     2   503   502  0.1416787517E+02  0.2041331925E+02 -0.8684966506E+02  0.9033436007E+02  0.0000000000E+00  0.  9.
     2     1     1     2   500     0 -0.4156593017E+01 -0.8382756369E+01 -0.1387264276E+02  0.1673620289E+02  0.3200000000E+00  0.  9.
    12     1     1     2     0     0 -0.2109479714E+01 -0.1597358440E+01 -0.1164517169E+02  0.1194200495E+02  0.0000000000E+00  0.  9.
    50     1     1     2     0     0 -0.2654802518E+01 -0.1894744428E+01 -0.2568598782E+04  0.2756614246E+04  0.1000605698E+04  0.  9.
</event>
<event>
    13     1  0.1000000000E+01  0.3445566401E+03  0.7299270015E-02  0.1180000007E+00
     2    -1     0     0   501     0  0.0000000000E+00  0.0000000000E+00  0.3725683803E+04  0.3725683817E+04  0.3200000000E+00  0.  9.
     2    -1     0     0   503     0  0.0000000000E+00  0.0000000000E+00 -0.2010984628E+03  0.2010987174E+03  0.3200000000E+00  0.  9.
    40     3     1     2     0     0  0.0000000000E+00  0.0000000000E+00  0.0000000000E+00  0.0000000000E+00  0.1731161243E+04  0.  9.
    23     1     1     2     0     0  0.6929751053E+02  0.1490193310E+03  0.3842112294E+03  0.4277176944E+03  0.9118800000E+02  0.  9.
   -14     1     1     2     0     0  0.1570428289E+03  0.9711715298E+01  0.4589511268E+03  0.4851730663E+03  0.0000000000E+00  0.  9.
    21     1     1     2   501   500 -0.5291967573E+02  0.6279134318E+02  0.3446970932E+03  0.3543435211E+03  0.0000000000E+00  0.  9.
   -13     1     1     2     0     0  0.1847915973E+02 -0.2871053448E+02  0.3732373421E+02  0.5058504160E+02  0.1056600000E+00  0.  9.
     4     1     1     2   500     0 -0.2627402032E+02 -0.3316484166E+01 -0.1284492956E+02  0.2947402121E+02  0.1550000000E+01  0.  9.
     5     1     1     2   503     0 -0.5197903027E+01 -0.1308537140E+02  0.2046774420E+03  0.2052208638E+03  0.4950000000E+01  0.  9.
     4     1     1     2   505     0 -0.3458329221E+01 -0.2486910873E+02  0.1080528847E+03  0.1109426023E+03  0.1550000000E+01  0.  9.
    21     1     1     2   506   505  0.2444086836E+01  0.5757036895E+01 -0.4828980610E+01  0.7901650967E+01  0.0000000000E+00  0.  9.
    -4     1     1     2     0   506  0.4570319878E+01  0.5141415761E+01  0.1820494180E+02  0.1952291950E+02  0.1550000000E+01  0.  9.
    50     1     1     2     0     0 -0.1639839776E+03 -0.1624393434E+03  0.1986140799E+04  0.2235901153E+04  0.1000610519E+04  0.  9.
</event>
<event>
    10     1  0.1000000000E+01  0.3976392680E+03  0.7299270015E-02  0.1180000007E+00
    21    -1     0     0   500   501  0.0000000000E+00  0.0000000000E+00  0.5756685495E+03  0.5756685495E+03  0.0000000000E+00  0.  9.
    21    -1     0     0   501   502  0.0000000000E+00  0.0000000000E+00 -0.7005126701E+03  0.7005126701E+03  0.0000000000E+00  0.  9.
    40     3     1     2     0     0  0.0000000000E+00  0.0000000000E+00  0.0000000000E+00  0.0000000000E+00  0.1270060019E+04  0.  9.
    11     1     1     2     0     0  0.1073779151E+03 -0.1914378793E+02  0.5787222908E+02  0.1234734634E+03  0.5110000000E-03  0.  9.
    -3     1     1     2     0   504  0.1231170047E+02  0.1482219771E+01  0.6272112627E+02  0.6393719281E+02  0.5000000000E+00  0.  9.
    21     1     1     2   503   502 -0.3500857097E+02 -0.2331490632E+02  0.9313321655E+01  0.4308042314E+02  0.0000000000E+00  0.  9.
     2     1     1     2   500     0 -0.3016242826E+01  0.5843286307E+01 -0.9293337216E+01  0.1138904001E+02  0.3200000000E+00  0.  9.
    21     1     1     2   504   503  0.1263981618E-01 -0.5308263587E-01 -0.3535014593E+00  0.3576881503E+00  0.0000000000E+00  0.  9.
    22     1     1     2     0     0 -0.1464144005E-02  0.9563144575E-02 -0.7497523249E-01  0.7559684477E-01  0.0000000000E+00  0.  9.
    50     1     1     2     0     0 -0.8167597742E+02  0.3517670765E+02 -0.2450289837E+03  0.1033867815E+04  0.1000467436E+04  0.  9.
</event>
<event>
    11     1  0.1000000000E+01  0.3468769866E+03  0.7299270015E-02  0.1180000007E+00
     2    -1     0     0   500     0  0.0000000000E+00  0.0000000000E+00  0.2764166015E+04  0.2764166034E+04  0.3200000000E+00  0.  9.
     1    -1     0     0   505     0  0.0000000000E+00  0.0000000000E+00 -0.2614600273E+03  0.2614602232E+03  0.3200000000E+00  0.  9.
    40     3     1     2     0     0  0.0000000000E+00  0.0000000000E+00  0.0000000000E+00  0.0000000000E+00  0.1700257917E+04  0.  9.
     6     1     1     2   500     0  0.7958252414E+02 -0.7804102140E+02  0.7481858813E+03  0.7762643765E+03  0.1743000000E+03  0.  9.
    21     1     1     2   503   502 -0.8450387200E+02  0.1291864393E+02  0.3734209819E+02  0.9328573332E+02  0.0000000000E+00  0.  9.
    -2     1     1     2     0   507 -0.4346115910E+02  0.2593021392E+02  0.3141467356E+02  0.5956704172E+02  0.3200000000E+00  0.  9.
    21     1     1     2   504   503  0.1015160089E+02  0.1477679402E+03  0.1302191329E+03  0.1972192732E+03  0.0000000000E+00  0.  9.
     2     1     1     2   502     0 -0.1035757350E+02  0.1965940439E+02  0.3661945041E+02  0.4283524317E+02  0.3200000000E+00  0.  9.
     3     1     1     2   507     0 -0.3758677677E+02 -0.3702832572E+02  0.8802252258E+02  0.1026259089E+03  0.5000000000E+00  0.  9.
    21     1     1     2   505   504 -0.3191025051E+01 -0.4748575138E+01  0.6802509846E+01  0.8888517701E+01  0.0000000000E+00  0.  9.
    50     1     1     2     0     0  0.8936628139E+02 -0.8645828020E+02  0.1424099719E+04  0.1744940163E+04  0.1000647188E+04  0.  9.
</event>
<event>
     9     1  0.1000000000E+01  0.3833002460E+03  0.7299270015E-02  0.1180000007E+00
    -3    -1     0     0     0   500  0.0000000000E+00  0.0000000000E+00  0.5273516537E+03  0.5273518907E+03  0.5000000000E+00  0.  9.
     2    -1     0     0   500     0  0.0000000000E+00  0.0000000000E+00 -0.8710575845E+03  0.8710576433E+03  0.3200000000E+00  0.  9.
    40     3     1     2     0     0  0.0000000000E+00  0.0000000000E+00  0.0000000000E+00  0.0000000000E+00  0.1355512987E+04  0.  9.
    24     1     1     2     0     0  0.1656139656E+03  0.1046827119E+03  0.2772073602E+02  0.2135937063E+03  0.8042000000E+02  0.  9.
    -3     1     1     2     0   504 -0.6296319440E+02  0.6833423267E+01  0.3578805205E+02  0.7274678132E+02  0.5000000000E+00  0.  9.
     1     1     1     2   502     0 -0.1430643094E+02 -0.1615894695E+02 -0.4403265546E+01  0.2202899635E+02  0.3200000000E+00  0.  9.
    21     1     1     2   503   502 -0.6765686431E+00  0.1266473905E+01 -0.5400040878E+01  0.5587677762E+01  0.0000000000E+00  0.  9.
    21     1     1     2   504   503  0.1572034457E+00  0.2648282703E+00  0.5511205958E-01  0.3128646276E+00  0.0000000000E+00  0.  9.
    50     1     1     2     0     0 -0.8782497509E+02 -0.9688849041E+02 -0.3974665245E+03  0.1084139508E+04  0.1000139104E+04  0.  9.
</event>
<event>
     8     1  0.1000000000E+01  0.4311568917E+03  0.7299270015E-02  0.1180000007E+00
    21    -1     0     0   500   501  0.0000000000E+00  0.0000000000E+00  0.3293705857E+03  0.3293705857E+03  0.0000000000E+00  0.  9.
     1    -1     0     0   501     0  0.0000000000E+00  0.0000000000E+00 -0.9777060085E+03  0.9777060609E+03  0.3200000000E+00  0.  9.
    40     3     1     2     0     0  0.0000000000E+00  0.0000000000E+00  0.0000000000E+00  0.0000000000E+00  0.1134949576E+04  0.  9.
     3     1     1     2   500     0 -0.4828903850E+02 -0.5047557060E+02  0.2107745090E+02  0.7296659101E+02  0.5000000000E+00  0.  9.
    15     1     1     2     0     0  0.6796787380E+01  0.8297554917E+00 -0.4134310187E+02  0.4194395033E+02  0.1777100000E+01  0.  9.
     4     1     1     2   503     0 -0.8018283694E+01  0.3010415086E+01 -0.2053319292E+01  0.8942823519E+01  0.1550000000E+01  0.  9.
    -3     1     1     2     0   503 -0.9559210641E+00  0.1638417916E+00 -0.3164350821E+00  0.1136116356E+01  0.5000000000E+00  0.  9.
    50     1     1     2     0     0  0.5046645587E+02  0.4647155823E+02 -0.6257000175E+03  0.1182087165E+04  0.1000561385E+04  0.  9.
</event>
<event>
     9     1  0.1000000000E+01  0.3896164340E+03  0.7299270015E-02  0.1180000007E+00
    21    -1     0     0   500   501  0.0000000000E+00  0.0000000000E+00  0.5010930351E+03  0.5010930351E+03  0.0000000000E+00  0.  9.
    -2    -1     0     0     0   500  0.0000000000E+00  0.0000000000E+00 -0.8631103502E+03  0.8631104095E+03  0.3200000000E+00  0.  9.
    40     3     1     2     0     0  0.0000000000E+00  0.0000000000E+00  0.0000000000E+00  0.0000000000E+00  0.1315292554E+04  0.  9.
   -12     1     1     2     0     0  0.7954524442E+02 -0.3489068073E+02 -0.1403880491E+03  0.1650866737E+03  0.0000000000E+00  0.  9.
    11     1     1     2     0     0 -0.7145553122E+02 -0.1569577230E+02  0.3746125718E+02  0.8219243274E+02  0.5110000000E-03  0.  9.
   -15     1     1     2     0     0  0.5218510080E+02  0.2205612196E+02 -0.6484450209E+01  0.5705228690E+02  0.1777100000E+01  0.  9.
    21     1     1     2   502   501 -0.2029530595E+02  0.9382889411E+01  0.6070798168E+01  0.2316878606E+02  0.0000000000E+00  0.  9.
    -2     1     1     2     0   502  0.1687673189E+01  0.1613156201E+00 -0.7784444215E+00  0.1892786105E+01  0.3200000000E+00  0.  9.
    50     1     1     2     0     0 -0.4166718124E+02  0.1898612603E+02 -0.2578984267E+03  0.1034810479E+04  0.1001111633E+04  0.  9.
</event>
</LesHouchesEvents>
