<LesHouchesEvents version="1.0">
<header>
<!--
#*********************************************************************
#                                                                    *
#                        MadGraph5_aMC@NLO                           *
#                                                                    *
#                           Going Beyond                             *
#                                                                    *
#                   http://madgraph.hep.uiuc.edu                     *
#                   http://madgraph.phys.ucl.ac.be                   *
#                   http://amcatnlo.cern.ch                          *
#                                                                    *
#                     The MadGraph5_aMC@NLO team                     *
#                                                                    *
#....................................................................*
#                                                                    *
# This file contains all the information necessary to reproduce      *
# the events generated:                                              *
#                                                                    *
# 1. software version                                                *
# 2. proc_card          : code generation info including model       *
# 3. param_card         : model primary parameters in the LH format  *
# 4. run_card           : running parameters (collider and cuts)     *
# 5. pythia_card        : present only if pythia has been run        *
# 6. pgs_card           : present only if pgs has been run           *
# 7. delphes_cards      : present only if delphes has been run       *
#                                                                    *
#                                                                    *
#*********************************************************************
-->
<MGVersion>
#5.2.3.2
</MGVersion>
<MG5ProcCard>
#************************************************************
#*                     MadGraph5_aMC@NLO                    *
#*                                                          *
#*                *                       *                 *
#*                  *        * *        *                   *
#*                    * * * * 5 * * * *                     *
#*                  *        * *        *                   *
#*                *                       *                 *
#*                                                          *
#*                                                          *
#*         VERSION 2.3.2                 2015-08-20         *
#*                                                          *
#*    The MadGraph5_aMC@NLO Development Team - Find us at   *
#*    https://server06.fynu.ucl.ac.be/projects/madgraph     *
#*                                                          *
#************************************************************
#*                                                          *
#*               Command File for MadGraph5_aMC@NLO         *
#*                                                          *
#*     run as ./bin/mg5_aMC  filename                       *
#*                                                          *
#************************************************************
set group_subprocesses Auto
set ignore_six_quark_processes False
set loop_color_flows False
set gauge unitary
set complex_mass_scheme False
set max_npoint_for_channel 0
import model WIMP_BG_higgsportal_full_loop
define j = g u c d s u~ c~ d~ s~
define l+ = e+ mu+
define l- = e- mu-
define p = g u c d s u~ c~ d~ s~
define l- = e- mu- ta-
define l+ = e+ mu+ ta+
define vl = ve vm vt
define vl~ = ve~ vm~ vt~
generate p p > xchi xchi, xchi > c b s      , xchi > c~ b~ s~
output -f
</MG5ProcCard>
<MGProcCard>
#*********************************************************************
#                        MadGraph/MadEvent                           *
#                   http://madgraph.hep.uiuc.edu                     *
#                                                                    *
#                          proc_card.dat                             *
#*********************************************************************
#                                                                    *
#            This Files is generated by MADGRAPH 5                   *
#                                                                    *
# WARNING: This Files is generated for MADEVENT (compatibility issue)*
#          This files is NOT a valid MG4 proc_card.dat               *
#          Running this in MG4 will NEVER reproduce the result of MG5*
#                                                                    *
#*********************************************************************
#*********************************************************************
# Process(es) requested : mg2 input                                  *
#*********************************************************************
# Begin PROCESS # This is TAG. Do not modify this line
p p > xchi xchi , xchi > c b s , xchi > c~ b~ s~           #Process
# Be carefull the coupling are here in MG5 convention
end_coup           # End the couplings input
done               # this tells MG there are no more procs
# End PROCESS  # This is TAG. Do not modify this line
#*********************************************************************
# Model information                                                  *
#*********************************************************************
# Begin MODEL  # This is TAG. Do not modify this line
WIMP_BG_higgsportal_full_loop
# End   MODEL  # This is TAG. Do not modify this line
#*********************************************************************
# Start multiparticle definitions                                    *
#*********************************************************************
# Begin MULTIPARTICLES # This is TAG. Do not modify this line
# End  MULTIPARTICLES # This is TAG. Do not modify this line
</MGProcCard>
<MGRunCard>
#*********************************************************************
#                       MadGraph5_aMC@NLO                            *
#                                                                    *
#                     run_card.dat MadEvent                          *
#                                                                    *
#  This file is used to set the parameters of the run.               *
#                                                                    *
#  Some notation/conventions:                                        *
#                                                                    *
#   Lines starting with a '# ' are info or comments                  *
#                                                                    *
#   mind the format:   value    = variable     ! comment             *
#*********************************************************************
#
#*******************                                                 
# Running parameters
#*******************                                                 
#                                                                    
#*********************************************************************
# Tag name for the run (one word)                                    *
#*********************************************************************
  tag_1	=  run_tag  ! name of the run 
#*********************************************************************
# Run to generate the grid pack                                      *
#*********************************************************************
  False	=  gridpack   !True = setting up the grid pack
#*********************************************************************
# Number of events and rnd seed                                      *
# Warning: Do not generate more than 1M events in a single run       *
# If you want to run Pythia, avoid more than 50k events in a run.    *
#*********************************************************************
  5	=  nevents  ! Number of unweighted events requested 
 1498 = iseed    ! rnd seed (0=assigned automatically=default))
#*********************************************************************
# Collider type and energy                                           *
# lpp: 0=No PDF, 1=proton, -1=antiproton, 2=photon from proton,      *
#                                         3=photon from electron     *
#*********************************************************************
  1	=  lpp1     ! beam 1 type 
  1	=  lpp2     ! beam 2 type
  6500.0	=  ebeam1   ! beam 1 total energy in GeV
  6500.0	=  ebeam2   ! beam 2 total energy in GeV
#*********************************************************************
# Beam polarization from -100 (left-handed) to 100 (right-handed)    *
#*********************************************************************
  0.0	=  polbeam1  ! beam polarization for beam 1
  0.0	=  polbeam2  ! beam polarization for beam 2
#*********************************************************************
# PDF CHOICE: this automatically fixes also alpha_s and its evol.    *
#*********************************************************************
  lhapdf	=  pdlabel      ! PDF set                                     
  247000	=  lhaid      ! if pdlabel=lhapdf, this is the lhapdf number
#*********************************************************************
# Renormalization and factorization scales                           *
#*********************************************************************
  False	=  fixed_ren_scale   ! if .true. use fixed ren scale
  False	=  fixed_fac_scale   ! if .true. use fixed fac scale
  91.188	=  scale             ! fixed ren scale
  91.188	=  dsqrt_q2fact1     ! fixed fact scale for pdf1
  91.188	=  dsqrt_q2fact2     ! fixed fact scale for pdf2
  -1	=  dynamical_scale_choice  ! Choose one of the preselected dynamical choices
  1.0	=  scalefact         ! scale factor for event-by-event scales
#*********************************************************************
# Time of flight information. (-1 means not run)
#*********************************************************************
  -1.0	=  time_of_flight  ! threshold below which info is not written
#*********************************************************************
# Matching - Warning! ickkw > 1 is still beta
#*********************************************************************
  0	=  ickkw             ! 0 no matching, 1 MLM, 2 CKKW matching
  1	=  highestmult       ! for ickkw=2, highest mult group
  1	=  ktscheme          ! for ickkw=1, 1 Durham kT, 2 Pythia pTE
  1.0	=  alpsfact          ! scale factor for QCD emission vx
  False	=  chcluster         ! cluster only according to channel diag
  True	=  pdfwgt            ! for ickkw=1, perform pdf reweighting
  4	=  asrwgtflavor      ! highest quark flavor for a_s reweight
  True	=  clusinfo          ! include clustering tag in output
  2.0	=  lhe_version        ! Change the way clustering information pass to shower.        
#*********************************************************************
#**********************************************************
#
#**********************************************************
# Automatic ptj and mjj cuts if xqcut > 0
# (turn off for VBF and single top processes)
#**********************************************************
  True	=  auto_ptj_mjj   ! Automatic setting of ptj and mjj
#**********************************************************
#                                                                    
#**********************************
# BW cutoff (M+/-bwcutoff*Gamma)
#**********************************
  15.0	=  bwcutoff       ! (M+/-bwcutoff*Gamma)
#**********************************************************
# Apply pt/E/eta/dr/mij/kt_durham cuts on decay products or not
# (note that etmiss/ptll/ptheavy/ht/sorted cuts always apply)
#*************************************************************
  False	=  cut_decays     ! Cut decay products 
#*************************************************************
# Number of helicities to sum per event (0 = all helicities)
# 0 gives more stable result, but longer run time (needed for
# long decay chains e.g.).
# Use >=2 if most helicities contribute, e.g. pure QCD.
#*************************************************************
  0	=  nhel           ! Number of helicities used per event
#*******************                                                 
# Standard Cuts
#*******************                                                 
#                                                                    
#*********************************************************************
# Minimum and maximum pt's (for max, -1 means no cut)                *
#*********************************************************************
  0.0	=  ptj        ! minimum pt for the jets 
  0.0	=  ptb        ! minimum pt for the b 
  0.0	=  pta        ! minimum pt for the photons 
  0.0	=  ptl        ! minimum pt for the charged leptons 
  0.0	=  misset     ! minimum missing Et (sum of neutrino's momenta)
  0.0	=  ptheavy    ! minimum pt for one heavy final state
  -1.0	=  ptjmax     ! maximum pt for the jets
  -1.0	=  ptbmax     ! maximum pt for the b
  -1.0	=  ptamax     ! maximum pt for the photons
  -1.0	=  ptlmax     ! maximum pt for the charged leptons
  -1.0	=  missetmax  ! maximum missing Et (sum of neutrino's momenta)
#*********************************************************************
# Minimum and maximum E's (in the center of mass frame)              *
#*********************************************************************
  0.0	=  ej      ! minimum E for the jets 
  0.0	=  eb      ! minimum E for the b 
  0.0	=  ea      ! minimum E for the photons 
  0.0	=  el      ! minimum E for the charged leptons 
  -1.0	=  ejmax  ! maximum E for the jets
  -1.0	=  ebmax  ! maximum E for the b
  -1.0	=  eamax  ! maximum E for the photons
  -1.0	=  elmax  ! maximum E for the charged leptons
#*********************************************************************
# Maximum and minimum absolute rapidity (for max, -1 means no cut)   *
#*********************************************************************
  -1.0	=  etaj     ! max rap for the jets 
  -1.0	=  etab     ! max rap for the b
  -1.0	=  etaa     ! max rap for the photons 
  -1.0	=  etal     ! max rap for the charged leptons 
  0.0	=  etajmin  ! min rap for the jets
  0.0	=  etabmin  ! min rap for the b
  0.0	=  etaamin  ! min rap for the photons
  0.0	=  etalmin  ! main rap for the charged leptons
#*********************************************************************
# Minimum and maximum DeltaR distance                                *
#*********************************************************************
  0.0	=  drjj     ! min distance between jets 
  0.0	=  drbb     ! min distance between b's 
  0.0	=  drll     ! min distance between leptons 
  0.0	=  draa     ! min distance between gammas 
  0.0	=  drbj     ! min distance between b and jet 
  0.0	=  draj     ! min distance between gamma and jet 
  0.0	=  drjl     ! min distance between jet and lepton 
  0.0	=  drab     ! min distance between gamma and b 
  0.0	=  drbl     ! min distance between b and lepton 
  0.0	=  dral     ! min distance between gamma and lepton 
  -1.0	=  drjjmax  ! max distance between jets
  -1.0	=  drbbmax  ! max distance between b's
  -1.0	=  drllmax  ! max distance between leptons
  -1.0	=  draamax  ! max distance between gammas
  -1.0	=  drbjmax  ! max distance between b and jet
  -1.0	=  drajmax  ! max distance between gamma and jet
  -1.0	=  drjlmax  ! max distance between jet and lepton
  -1.0	=  drabmax  ! max distance between gamma and b
  -1.0	=  drblmax  ! max distance between b and lepton
  -1.0	=  dralmax  ! maxdistance between gamma and lepton
#*********************************************************************
# Minimum and maximum invariant mass for pairs                       *
# WARNING: for four lepton final state mmll cut require to have      *
#          different lepton masses for each flavor!                  *           
#*********************************************************************
  0.0	=  mmjj     ! min invariant mass of a jet pair 
  0.0	=  mmbb     ! min invariant mass of a b pair 
  0.0	=  mmaa     ! min invariant mass of gamma gamma pair
  0.0	=  mmll     ! min invariant mass of l+l- (same flavour) lepton pair
  -1.0	=  mmjjmax  ! max invariant mass of a jet pair
  -1.0	=  mmbbmax  ! max invariant mass of a b pair
  -1.0	=  mmaamax  ! max invariant mass of gamma gamma pair
  -1.0	=  mmllmax  ! max invariant mass of l+l- (same flavour) lepton pair
#*********************************************************************
# Minimum and maximum invariant mass for all letpons                 *
#*********************************************************************
  0.0	=  mmnl     ! min invariant mass for all letpons (l+- and vl) 
  -1.0	=  mmnlmax  ! max invariant mass for all letpons (l+- and vl) 
#*********************************************************************
# Minimum and maximum pt for 4-momenta sum of leptons                *
#*********************************************************************
  0.0	=  ptllmin   ! Minimum pt for 4-momenta sum of leptons(l and vl)
  -1.0	=  ptllmax   ! Maximum pt for 4-momenta sum of leptons(l and vl)
#*********************************************************************
# Inclusive cuts                                                     *
#*********************************************************************
  0.0	=  xptj  ! minimum pt for at least one jet  
  0.0	=  xptb  ! minimum pt for at least one b 
  0.0	=  xpta  ! minimum pt for at least one photon 
  0.0	=  xptl  ! minimum pt for at least one charged lepton 
#*********************************************************************
# Control the pt's of the jets sorted by pt                          *
#*********************************************************************
  0.0	=  ptj1min  ! minimum pt for the leading jet in pt
  0.0	=  ptj2min  ! minimum pt for the second jet in pt
  0.0	=  ptj3min  ! minimum pt for the third jet in pt
  0.0	=  ptj4min  ! minimum pt for the fourth jet in pt
  -1.0	=  ptj1max  ! maximum pt for the leading jet in pt 
  -1.0	=  ptj2max  ! maximum pt for the second jet in pt
  -1.0	=  ptj3max  ! maximum pt for the third jet in pt
  -1.0	=  ptj4max  ! maximum pt for the fourth jet in pt
  0	=  cutuse   ! reject event if fails any (0) / all (1) jet pt cuts
#*********************************************************************
# Control the pt's of leptons sorted by pt                           *
#*********************************************************************
  0.0	=  ptl1min  ! minimum pt for the leading lepton in pt
  0.0	=  ptl2min  ! minimum pt for the second lepton in pt
  0.0	=  ptl3min  ! minimum pt for the third lepton in pt
  0.0	=  ptl4min  ! minimum pt for the fourth lepton in pt
  -1.0	=  ptl1max  ! maximum pt for the leading lepton in pt 
  -1.0	=  ptl2max  ! maximum pt for the second lepton in pt
  -1.0	=  ptl3max  ! maximum pt for the third lepton in pt
  -1.0	=  ptl4max  ! maximum pt for the fourth lepton in pt
#*********************************************************************
# Control the Ht(k)=Sum of k leading jets                            *
#*********************************************************************
  0.0	=  htjmin  ! minimum jet HT=Sum(jet pt)
  -1.0	=  htjmax  ! maximum jet HT=Sum(jet pt)
  0.0	=  ihtmin   !inclusive Ht for all partons (including b)
  -1.0	=  ihtmax   !inclusive Ht for all partons (including b)
  0.0	=  ht2min  ! minimum Ht for the two leading jets
  0.0	=  ht3min  ! minimum Ht for the three leading jets
  0.0	=  ht4min  ! minimum Ht for the four leading jets
  -1.0	=  ht2max  ! maximum Ht for the two leading jets
  -1.0	=  ht3max  ! maximum Ht for the three leading jets
  -1.0	=  ht4max  ! maximum Ht for the four leading jets
#***********************************************************************
# Photon-isolation cuts, according to hep-ph/9801442                   *
# When ptgmin=0, all the other parameters are ignored                  *
# When ptgmin>0, pta and draj are not going to be used                 *
#***********************************************************************
  0.0	=  ptgmin  ! Min photon transverse momentum
  0.4	=  R0gamma  ! Radius of isolation code
  1.0	=  xn  ! n parameter of eq.(3.4) in hep-ph/9801442
  1.0	=  epsgamma  ! epsilon_gamma parameter of eq.(3.4) in hep-ph/9801442
  True	=  isoEM  ! isolate photons from EM energy (photons and leptons)
#*********************************************************************
# WBF cuts                                                           *
#*********************************************************************
  0.0	=  xetamin  ! minimum rapidity for two jets in the WBF case  
  0.0	=  deltaeta  ! minimum rapidity for two jets in the WBF case 
#*********************************************************************
# KT DURHAM CUT                                                      *
#*********************************************************************
  -1.0	=   ktdurham        
   0.4	=   dparameter 
 #*********************************************************************
# maximal pdg code for quark to be considered as a light jet         *
# (otherwise b cuts are applied)                                     *
#*********************************************************************
  4	=  maxjetflavor     ! Maximum jet pdg code
#*********************************************************************
# Jet measure cuts                                                   *
#*********************************************************************
  0.0	=  xqcut    ! minimum kt jet measure between partons
#*********************************************************************
#
#*********************************************************************
# Store info for systematics studies                                 *
# WARNING: If use_syst is T, matched Pythia output is                *
#          meaningful ONLY if plotted taking matchscale              *
#          reweighting into account!                                 *
#*********************************************************************
  True	=  use_syst       ! Enable systematics studies
#
#**************************************
# Parameter of the systematics study
#  will be used by SysCalc (if installed)
#**************************************                                  
#
  0.5 1 2	=  sys_scalefact   # factorization/renormalization scale factor
  None	=  sys_alpsfact   # \alpha_s emission scale factors
  30 50	=  sys_matchscale  # variation of merging scale
# PDF sets and number of members (0 or none for all members).
  Ct10nlo.LHgrid	=  sys_pdf  # matching scales
# MSTW2008nlo68cl.LHgrid 1  = sys_pdf
</MGRunCard>
<slha>
######################################################################
## PARAM_CARD AUTOMATICALY GENERATED BY MG5 FOLLOWING UFO MODEL   ####
######################################################################
##                                                                  ##
##  Width set on Auto will be computed following the information    ##
##        present in the decay.py files of the model.               ##
##        See  arXiv:1402.1178 for more details.                    ##
##                                                                  ##
######################################################################
###################################
## INFORMATION FOR CKMBLOCK
###################################
Block ckmblock 
    1 2.277360e-01 # cabi 
###################################
## INFORMATION FOR MASS
###################################
Block mass 
    1 5.040000e-03 # MD 
    2 2.550000e-03 # MU 
    3 1.010000e-01 # MS 
    4 1.420000e+00 # MC 
    5 4.700000e+00 # MB 
    6 1.720000e+02 # MT 
   11 5.110000e-04 # Me 
   13 1.056600e-01 # MM 
   15 1.777000e+00 # MTA 
   23 9.118760e+01 # MZ 
   25 1.250000e+02 # MH 
  1000001 1.000000e+05 # Msd 
  1000003 1.000000e+05 # Mss 
  1000005 1.000000e+05 # Msb 
  1000011 1.000000e+05 # Mse 
  1000013 1.000000e+05 # Msm 
  1000015 1.000000e+05 # Msta 
   3000001    10  #  Mxchi
## Dependent parameters, given by model restrictions.
## Those values should be edited following the 
## analytical expression. MG5 ignores those values 
## but they are important for interfacing the output of MG5
## to external program such as Pythia.
  12 0.000000 # ve : 0.0 
  14 0.000000 # vm : 0.0 
  16 0.000000 # vt : 0.0 
  21 0.000000 # g : 0.0 
  22 0.000000 # a : 0.0 
  24 79.824360 # w+ : cmath.sqrt(MZ__exp__2/2. + cmath.sqrt(MZ__exp__4/4. - (aEW*cmath.pi*MZ__exp__2)/(Gf*sqrt__2))) 
###################################
## INFORMATION FOR RPVBLOCK
###################################
Block rpvblock 
    1 5.000000e-01 # lHchi 
    2 1.000000e-01 # ldchi 
    3 1.000000e-01 # llchi 
    4 1.000000e-01 # lUDD 
    5 1.000000e-01 # lQDL 
    6 1.000000e-01 # lLLE 
###################################
## INFORMATION FOR SMINPUTS
###################################
Block sminputs 
    1 1.279000e+02 # aEWM1 
    2 1.166370e-05 # Gf 
    3 1.184000e-01 # aS 
###################################
## INFORMATION FOR YUKAWA
###################################
Block yukawa 
    1 5.040000e-03 # ymdo 
    2 2.550000e-03 # ymup 
    3 1.010000e-01 # yms 
    4 1.270000e+00 # ymc 
    5 4.700000e+00 # ymb 
    6 1.720000e+02 # ymt 
   11 5.110000e-04 # yme 
   13 1.056600e-01 # ymm 
   15 1.777000e+00 # ymtau 
###################################
## INFORMATION FOR DECAY
###################################
DECAY   6 1.508336e+00 # WT 
DECAY  23 2.495200e+00 # WZ 
DECAY  24 2.085000e+00 # WW 
DECAY  25 5.753088e-03 # WH 
DECAY 1000001 1.000000e-02 # Wsd 
DECAY 1000003 1.000000e-02 # Wss 
DECAY 1000005 1.000000e-02 # Wsb 
DECAY 1000011 1.000000e-02 # Wse 
DECAY 1000013 1.000000e-02 # Wsm 
DECAY 1000015 1.000000e-02 # Wsta 
DECAY 3000001 1.000000e-04 # Wxchi 
## Dependent parameters, given by model restrictions.
## Those values should be edited following the 
## analytical expression. MG5 ignores those values 
## but they are important for interfacing the output of MG5
## to external program such as Pythia.
DECAY  1 0.000000 # d : 0.0 
DECAY  2 0.000000 # u : 0.0 
DECAY  3 0.000000 # s : 0.0 
DECAY  4 0.000000 # c : 0.0 
DECAY  5 0.000000 # b : 0.0 
DECAY  11 0.000000 # e- : 0.0 
DECAY  12 0.000000 # ve : 0.0 
DECAY  13 0.000000 # mu- : 0.0 
DECAY  14 0.000000 # vm : 0.0 
DECAY  15 0.000000 # ta- : 0.0 
DECAY  16 0.000000 # vt : 0.0 
DECAY  21 0.000000 # g : 0.0 
DECAY  22 0.000000 # a : 0.0 
#===========================================================
# QUANTUM NUMBERS OF NEW STATE(S) (NON SM PDG CODE)
#===========================================================
Block QNUMBERS 3000001  # xchi 
        1 0  # 3 times electric charge
        2 2  # number of spin states (2S+1)
        3 1  # colour rep (1: singlet, 3: triplet, 8: octet)
        4 0  # Particle/Antiparticle distinction (0=own anti)
Block QNUMBERS 1000001  # dl 
        1 -1  # 3 times electric charge
        2 1  # number of spin states (2S+1)
        3 3  # colour rep (1: singlet, 3: triplet, 8: octet)
        4 1  # Particle/Antiparticle distinction (0=own anti)
Block QNUMBERS 1000003  # sl 
        1 -1  # 3 times electric charge
        2 1  # number of spin states (2S+1)
        3 3  # colour rep (1: singlet, 3: triplet, 8: octet)
        4 1  # Particle/Antiparticle distinction (0=own anti)
Block QNUMBERS 1000005  # b1 
        1 -1  # 3 times electric charge
        2 1  # number of spin states (2S+1)
        3 3  # colour rep (1: singlet, 3: triplet, 8: octet)
        4 1  # Particle/Antiparticle distinction (0=own anti)
Block QNUMBERS 1000011  # el- 
        1 -3  # 3 times electric charge
        2 1  # number of spin states (2S+1)
        3 1  # colour rep (1: singlet, 3: triplet, 8: octet)
        4 1  # Particle/Antiparticle distinction (0=own anti)
Block QNUMBERS 1000013  # mul- 
        1 -3  # 3 times electric charge
        2 1  # number of spin states (2S+1)
        3 1  # colour rep (1: singlet, 3: triplet, 8: octet)
        4 1  # Particle/Antiparticle distinction (0=own anti)
Block QNUMBERS 1000015  # ta1- 
        1 -3  # 3 times electric charge
        2 1  # number of spin states (2S+1)
        3 1  # colour rep (1: singlet, 3: triplet, 8: octet)
        4 1  # Particle/Antiparticle distinction (0=own anti)
</slha>
## END BANNER##
<MGGenerationInfo>
#  Number of Events        :            5
#  Integrated weight (pb)  :  0.24394E-36
#  Truncated wgt (pb)      :  0.00000E+00
#  Unit wgt                :  0.48788E-37
</MGGenerationInfo>
</header>
<init>
     2212     2212  0.65000000000E+04  0.65000000000E+04 0 0  247000  247000  3   1
  0.23174300000E-36  0.33706950000E-38  0.48788000000E-37   0
</init>
<event>
11   0  0.4878800E-37  0.1249975E+03  0.7818608E-02  0.1238092E+00
       21   -1    0    0  508  507  0.00000000000E+00  0.00000000000E+00  0.11150122395E+03  0.11150122395E+03  0.00000000000E+00 0. -1.
       21   -1    0    0  507  508  0.00000000000E+00  0.00000000000E+00 -0.35031863472E+02  0.35031863472E+02  0.00000000000E+00 0. -1.
       25    2    1    2    0    0  0.00000000000E+00  0.00000000000E+00  0.76469360476E+02  0.14653308742E+03  0.12499753045E+03 0.  0.
  3000001    2    3    3    0    0 -0.31083782131E+02 -0.48111392170E+02  0.11369426004E+02  0.59246698735E+02  0.99999947610E+01 1.75347748630E+03  0.
  3000001    2    3    3    0    0  0.31083782131E+02  0.48111392170E+02  0.65099934472E+02  0.87286388686E+02  0.10000230666E+02 2.00855132249E+03  0.
        4    1    4    4  502    0 -0.79263489702E+00 -0.27206866102E+01  0.36374580192E+00  0.31904727859E+01  0.14199999571E+01 0.  1.
        5    1    4    4  503    0 -0.21965912728E+02 -0.34380267143E+02  0.96435868629E+01  0.42185220831E+02  0.46999998093E+01 0. -1.
        3    1    4    4  501    0 -0.83252345065E+01 -0.11010438417E+02  0.13620933395E+01  0.13871005118E+02  0.10100000352E+00 0.  1.
       -4    1    5    5    0  505  0.18917116550E+02  0.30772019969E+02  0.40526338288E+02  0.54306307244E+02  0.14199999571E+01 0.  1.
       -5    1    5    5    0  506  0.11107799999E+02  0.16952622453E+02  0.23785842028E+02  0.31601121943E+02  0.46999998093E+01 0.  1.
       -3    1    5    5    0  504  0.10588655820E+01  0.38674974760E+00  0.78775415570E+00  0.13789594985E+01  0.10100000352E+00 0.  1.
<mgrwt>
<rscale>  0 0.12499753E+03</rscale>
<asrwt>0</asrwt>
<pdfrwt beam="1">  1       21 0.17154034E-01 0.12499753E+03</pdfrwt>
<pdfrwt beam="2">  1       21 0.53895175E-02 0.12499753E+03</pdfrwt>
<totfact> 0.71234652E+06</totfact>
</mgrwt>
</event>
<event>
11   0  0.4878800E-37  0.1250003E+03  0.7818608E-02  0.1238088E+00
       21   -1    0    0  508  507  0.00000000000E+00  0.00000000000E+00  0.25908201079E+02  0.25908201079E+02  0.00000000000E+00 0.  1.
       21   -1    0    0  507  508  0.00000000000E+00  0.00000000000E+00 -0.15077347024E+03  0.15077347024E+03  0.00000000000E+00 0.  1.
       25    2    1    2    0    0  0.00000000000E+00 -0.35527136788E-14 -0.12486526916E+03  0.17668167132E+03  0.12500031015E+03 0.  0.
  3000001    2    3    3    0    0 -0.96281430497E+01 -0.19571442600E+02  0.19138587108E+02  0.30692438458E+02  0.99998878990E+01 1.16803080301E+03  0.
  3000001    2    3    3    0    0  0.96281430497E+01  0.19571442600E+02 -0.14400385627E+03  0.14598923286E+03  0.10000149338E+02 4.89622420139E+02  0.
        4    1    4    4  502    0 -0.23376607940E+01 -0.61265809793E+01  0.19755818142E+01  0.69942101675E+01  0.14199999571E+01 0.  1.
        5    1    4    4  503    0 -0.56367897307E+01 -0.12120046982E+02  0.14256463584E+02  0.20099892772E+02  0.46999998093E+01 0. -1.
        3    1    4    4  501    0 -0.16536925250E+01 -0.13248146388E+01  0.29065417105E+01  0.35983355194E+01  0.10100000352E+00 0.  1.
       -4    1    5    5    0  505  0.87303740739E+00  0.23020906159E+01 -0.28517699595E+02  0.28658984727E+02  0.14199999571E+01 0.  1.
       -5    1    5    5    0  506  0.31110186678E+01  0.10172716758E+02 -0.62156012991E+02  0.63234662587E+02  0.46999998093E+01 0.  1.
       -3    1    5    5    0  504  0.56440869746E+01  0.70966352263E+01 -0.53330143687E+02  0.54095585550E+02  0.10100000352E+00 0.  1.
<mgrwt>
<rscale>  0 0.12500031E+03</rscale>
<asrwt>0</asrwt>
<pdfrwt beam="1">  1       21 0.39858771E-02 0.12500031E+03</pdfrwt>
<pdfrwt beam="2">  1       21 0.23195918E-01 0.12500031E+03</pdfrwt>
<totfact> 0.67557305E+06</totfact>
</mgrwt>
</event>
<event>
11   0  0.4878800E-37  0.1250002E+03  0.7818608E-02  0.1238088E+00
       21   -1    0    0  508  507  0.00000000000E+00  0.00000000000E+00  0.47080296661E+02  0.47080296661E+02  0.00000000000E+00 0. -1.
       21   -1    0    0  507  508  0.00000000000E+00  0.00000000000E+00 -0.82970239516E+02  0.82970239516E+02  0.00000000000E+00 0. -1.
       25    2    1    2    0    0  0.14210854715E-13  0.00000000000E+00 -0.35889942855E+02  0.13005053618E+03  0.12500021585E+03 0.  0.
  3000001    2    3    3    0    0 -0.56053682066E+02 -0.15646116219E+01 -0.44709847376E+02  0.72411544223E+02  0.99999000858E+01 8.35154179855E+02  0.
  3000001    2    3    3    0    0  0.56053682066E+02  0.15646116219E+01  0.88199045208E+01  0.57638991955E+02  0.99999697583E+01 2.53602437996E+03  0.
        4    1    4    4  502    0 -0.11631283480E+02 -0.47395378693E+00 -0.11921676105E+02  0.16722863050E+02  0.14199999571E+01 0. -1.
        5    1    4    4  503    0 -0.30536631530E+02 -0.18798723045E+01 -0.24690578235E+02  0.39594626364E+02  0.46999998093E+01 0.  1.
        3    1    4    4  501    0 -0.13885767056E+02  0.78921446950E+00 -0.80975930352E+01  0.16094054808E+02  0.10100000352E+00 0. -1.
       -4    1    5    5    0  504  0.58670339086E+01  0.20166114085E+01  0.10166468667E+01  0.64450585092E+01  0.14199999571E+01 0.  1.
       -5    1    5    5    0  505  0.44123573475E+02 -0.16795453935E+01  0.66415553122E+01  0.44898896023E+02  0.46999998093E+01 0.  1.
       -3    1    5    5    0  506  0.60630746823E+01  0.12275456069E+01  0.11617023419E+01  0.62950374226E+01  0.10100000352E+00 0. -1.
<mgrwt>
<rscale>  0 0.12500022E+03</rscale>
<asrwt>0</asrwt>
<pdfrwt beam="1">  1       21 0.72431226E-02 0.12500022E+03</pdfrwt>
<pdfrwt beam="2">  1       21 0.12764652E-01 0.12500022E+03</pdfrwt>
<totfact> 0.73369073E+06</totfact>
</mgrwt>
</event>
<event>
11   0  0.4878800E-37  0.1249888E+03  0.7818608E-02  0.1238105E+00
       21   -1    0    0  508  507  0.00000000000E+00  0.00000000000E+00  0.19154307064E+02  0.19154307064E+02  0.00000000000E+00 0.  1.
       21   -1    0    0  507  508  0.00000000000E+00  0.00000000000E+00 -0.20389947359E+03  0.20389947359E+03  0.00000000000E+00 0.  1.
       25    2    1    2    0    0  0.35527136788E-14  0.00000000000E+00 -0.18474516652E+03  0.22305378065E+03  0.12498884954E+03 0.  0.
  3000001    2    3    3    0    0  0.25286955844E+02 -0.54650972341E+02 -0.68469870153E+02  0.91729384815E+02  0.99999003006E+01 2.97586194358E+02  0.
  3000001    2    3    3    0    0 -0.25286955844E+02  0.54650972341E+02 -0.11627529637E+03  0.13132439584E+03  0.99996741104E+01 6.53449639017E+02  0.
        4    1    4    4  502    0  0.79345527613E+01 -0.12760012287E+02 -0.15206179719E+02  0.21424736699E+02  0.14199999571E+01 0. -1.
        5    1    4    4  503    0  0.15154896457E+02 -0.39393648476E+02 -0.48147404615E+02  0.64201191549E+02  0.46999998093E+01 0. -1.
        3    1    4    4  501    0  0.21975066259E+01 -0.24973115779E+01 -0.51162858186E+01  0.61034565670E+01  0.10100000352E+00 0.  1.
       -4    1    5    5    0  504 -0.67440283254E+01  0.13150609027E+02 -0.24838919741E+02  0.28938015993E+02  0.14199999571E+01 0.  1.
       -5    1    5    5    0  505 -0.14712835800E+02  0.34836689842E+02 -0.79923404700E+02  0.88543227373E+02  0.46999998093E+01 0.  1.
       -3    1    5    5    0  506 -0.38300917185E+01  0.66636734716E+01 -0.11512971927E+02  0.13843152470E+02  0.10100000352E+00 0. -1.
<mgrwt>
<rscale>  0 0.12498885E+03</rscale>
<asrwt>0</asrwt>
<pdfrwt beam="1">  1       21 0.29468165E-02 0.12498885E+03</pdfrwt>
<pdfrwt beam="2">  1       21 0.31369150E-01 0.12498885E+03</pdfrwt>
<totfact> 0.62525032E+06</totfact>
</mgrwt>
</event>
<event>
11   0  0.4878800E-37  0.1249920E+03  0.7818608E-02  0.1238100E+00
       21   -1    0    0  508  507  0.00000000000E+00  0.00000000000E+00  0.42593065666E+02  0.42593065666E+02  0.00000000000E+00 0.  1.
       21   -1    0    0  507  508  0.00000000000E+00  0.00000000000E+00 -0.91699207098E+02  0.91699207098E+02  0.00000000000E+00 0.  1.
       25    2    1    2    0    0 -0.71054273576E-14  0.88817841970E-15 -0.49106141432E+02  0.13429227276E+03  0.12499200534E+03 0.  0.
  3000001    2    3    3    0    0 -0.51916452911E+02  0.68326295005E+01  0.10488889850E+02  0.54332476964E+02  0.99999167010E+01 1.89169794751E+03  0.
  3000001    2    3    3    0    0  0.51916452911E+02 -0.68326295005E+01 -0.59595031282E+02  0.79959795800E+02  0.99999141050E+01 1.79355689117E+03  0.
        4    1    4    4  501    0 -0.19917031307E+02  0.39824911454E+01  0.64415690199E+01  0.21355528163E+02  0.14199999571E+01 0.  1.
        5    1    4    4  502    0 -0.18032058657E+02  0.15521314868E+01  0.22068921658E+01  0.18828824254E+02  0.46999998093E+01 0. -1.
        3    1    4    4  503    0 -0.13967362947E+02  0.12980068683E+01  0.18404286646E+01  0.14148124547E+02  0.10100000352E+00 0. -1.
       -4    1    5    5    0  504  0.26378210650E+02 -0.37653526273E+01 -0.27840110768E+02  0.38562624975E+02  0.14199999571E+01 0. -1.
       -5    1    5    5    0  505  0.17911346330E+02 -0.24955106199E+01 -0.24861438305E+02  0.31100241372E+02  0.46999998093E+01 0. -1.
       -3    1    5    5    0  506  0.76268959310E+01 -0.57176625336E+00 -0.68934822099E+01  0.10296929453E+02  0.10100000352E+00 0.  1.
<mgrwt>
<rscale>  0 0.12499201E+03</rscale>
<asrwt>0</asrwt>
<pdfrwt beam="1">  1       21 0.65527793E-02 0.12499201E+03</pdfrwt>
<pdfrwt beam="2">  1       21 0.14107570E-01 0.12499201E+03</pdfrwt>
<totfact> 0.72790856E+06</totfact>
</mgrwt>
</event>
</LesHouchesEvents>
