<LesHouchesEvents version="3.0">
<header>
# # ! main88.cmnd.
# # ! This file contains commands to be read in for a Pythia8 run.
# # ! Lines not beginning with a letter or digit are comments.
# # 
# # ! Number of events generated
# # Main:numberOfEvents       = 10000
# # 
# # #print:quiet = on
# # ! Shower options
# # HadronLevel:all           = off
# # PartonLevel:MPI           = off
# # PartonLevel:FSR           = off
# # #PartonLevel:ISR           = off
# # BeamRemnants:primordialKT = off
# # ColourReconnection:reconnect = off
# # 
# # ! Core process for merging
# # Merging:Process           = pp>LEPTONS,NEUTRINOS
# # 
# # ! Maximal number of additional LO jets.
# # Merging:nJetMax           = 3
# # ! Maximal number of additional NLO jets.
# # Merging:nJetMaxNLO        = 2
# # 
# # ! Merging scale value.
# # Merging:TMS               = 15
# # 
# # SpaceShower:pTmaxMatch = 1
# # TimeShower:pTmaxMatch = 1
# # 
# # #1:m0 = 0.
# # #2:m0 = 0.
# # #3:m0 = 0.
# # 
# # ! Values of (fixed) scales in the matrix element calculation.
# # #Merging:muFacInME         = 80.4
# # #Merging:muRenInME         = 91.188
# # ! Values of (fixed) scales for the PS lowest multiplicity process.
# # Merging:muFac             = 91.188
# # Merging:muRen             = 91.188
# # 
# # ! Include PDFs into the choice of histories.
# # #Merging:includeRedundant  = on
# # 
# # ! Switch off enforced rapidity ordering
# # SpaceShower:rapidityOrder = off
# # 
# # ! Since UNLOPS is a next-to-leading order merging method, next-to-leading
# # ! order PDFs are necessary in the matrix element calculation. However, the
# # ! parton shower and multiparton interactions favour leading-order PDFs,
# # ! since multiparton interactions probe the incoming hadron at small momentum
# # ! scales. Until a NLO-merged tune becomes available, LO PDFs should be used
# # ! throughout the shower.
# # ! Example PDF files generated with CTEQ6M PDFs.
# # #PDF:pSet                  = LHAPDF5:cteq6m.LHpdf
# # #SpaceShower:alphaSvalue   = 0.118
# # #TimeShower:alphaSvalue    = 0.118
<initrwgt >
</initrgwt>
</header>
<init>
     2212     2212           3500           3500    0    0    0    0   -4    1
              1              0              0      0
# #no interesting init
# just testing
</init>
<event>
    7      0      4521.5523      12.330054   0.0075467716     0.10410398
       21 -1    0    0  501  504                  0                  0          10.425605          10.425605                  0 0 9
        1 -1    0    0  502    0                  0                  0         -870.34851          870.34851                  0 0 9
       23  2    1    2    0    0         -14.283099         -8.7333155         -797.61471          803.17173          92.818713 0 0
        1  1    1    2  501    0         -10.535184          5.2055138         -46.508405          47.971117               0.33 0 9
       21  1    1    2  502  504          24.818282           3.527802         -15.800253          29.631749                  0 0 9
      -13  1    3    3    0    0         -17.442381          38.352499         -507.27941          509.02609         0.10565837 0 9
       13  1    3    3    0    0          3.1592828         -47.085815          -290.3353          294.14563         0.10565837 0 9
#no interesting event
# just testing
<rwgt >
<wgt id="1001" >4521.6</wgt>
<wgt id="1002" >4087.3</wgt>
<wgt id="1003" >5015.8</wgt>
<wgt id="1004" >3823.3</wgt>
<wgt id="1005" >3457.2</wgt>
<wgt id="1006" >4240</wgt>
<wgt id="1007" >5415.2</wgt>
<wgt id="1008" >4893.1</wgt>
<wgt id="1009" >6009.7</wgt>
</rgwt>
<weights ></weights>
<scales muf="12.330054" mur="12.330054" mups="12.330054"</scales>
</event>
<event>
    7      0     -4521.5523      21.843301   0.0075467716     0.12358724
       21 -1    0    0  501  503                  0                  0          6.7640323          6.7640323                  0 0 9
        1 -1    0    0  504    0                  0                  0         -1260.1158          1260.1158                  0 0 9
       23  2    1    2    0    0          39.539413          11.046815         -530.85556          541.86809          100.63799 0 0
        1  1    1    2  501    0         -20.408079          1.9413986         -99.695921          101.78234               0.33 0 9
       21  1    1    2  504  503         -19.131332         -12.988215         -622.80086          623.22998                  0 0 9
      -13  1    3    3    0    0          45.767335          44.872363         -220.92333          230.03327         0.10565837 0 9
       13  1    3    3    0    0          -6.227924         -33.825546         -309.93223          311.83482         0.10565837 0 9
#no interesting event
# just testing
<rwgt >
<wgt id="1001" >-4521.8</wgt>
<wgt id="1002" >-3961.3</wgt>
<wgt id="1003" >-5207.4</wgt>
<wgt id="1004" >-3266.5</wgt>
<wgt id="1005" >-2861.4</wgt>
<wgt id="1006" >-3762.2</wgt>
<wgt id="1007" >-6523.7</wgt>
<wgt id="1008" >-5715.8</wgt>
<wgt id="1009" >-7511.8</wgt>
</rgwt>
<weights ></weights>
<scales muf="21.843301" mur="21.843301" mups="21.843301"</scales>
</event>
<event>
    6      0      4521.5523      24.041734   0.0075467716     0.12450421
        2 -1    0    0  503    0                  0                  0          1871.0274          1871.0274                  0 0 9
       21 -1    0    0  501  502                  0                  0         -6.8794242          6.8794242                  0 0 9
        2  1    1    2  501    0          7.8892581         -42.051773          96.723905           105.7649               0.33 0 9
       21  1    1    2  503  502         -24.342905          12.362926          824.06448          824.51664                  0 0 9
      -11  1    1    2    0    0         -20.785757          27.988985          179.36424          182.72099      0.00051099893 0 9
       11  1    1    2    0    0          37.239403          1.6998623          763.99433          764.90327      0.00051099893 0 9
#no interesting event
# just testing
<rwgt >
<wgt id="1001" >4521.5</wgt>
<wgt id="1002" >4353.6</wgt>
<wgt id="1003" >4630.5</wgt>
<wgt id="1004" >3595.4</wgt>
<wgt id="1005" >3463.1</wgt>
<wgt id="1006" >3680.6</wgt>
<wgt id="1007" >5860.4</wgt>
<wgt id="1008" >5640.4</wgt>
<wgt id="1009" >6004.4</wgt>
</rgwt>
<weights ></weights>
<scales muf="24.041734" mur="24.041734" mups="24.041734"</scales>
</event>
<event>
    6      0      4521.5523      16.457478   0.0075467716     0.12064115
       21 -1    0    0  501  502                  0                  0          8.7037887          8.7037887                  0 0 9
        1 -1    0    0  503    0                  0                  0         -766.24132          766.24132                  0 0 9
        1  1    1    2  501    0          16.663812         -1.5469637          -11.47726          20.295618               0.33 0 9
       21  1    1    2  503  502          18.715043         -23.347822         -139.79901          142.96551                  0 0 9
      -11  1    1    2    0    0         -49.785885         -1.5941855         -428.21828          431.10564      0.00051099893 0 9
       11  1    1    2    0    0          14.407031          26.488971         -178.04248          180.57783      0.00051099893 0 9
#no interesting event
# just testing
<rwgt >
<wgt id="1001" >4521.6</wgt>
<wgt id="1002" >4091.2</wgt>
<wgt id="1003" >5016.8</wgt>
<wgt id="1004" >3335.6</wgt>
<wgt id="1005" >3018.1</wgt>
<wgt id="1006" >3700.8</wgt>
<wgt id="1007" >6355</wgt>
<wgt id="1008" >5750.2</wgt>
<wgt id="1009" >7050.9</wgt>
</rgwt>
<weights ></weights>
<scales muf="16.457478" mur="16.457478" mups="16.457478"</scales>
</event>
<event>
    7      0      4521.5523      41.533862   0.0075467716     0.11370897
        2 -1    0    0  502    0                  0                  0          2450.1835          2450.1835                  0 0 9
       21 -1    0    0  503  502                  0                  0         -8.6249051          8.6249051                  0 0 9
       23  2    1    2    0    0          21.995916         -38.658665          1992.3444          1995.1456          95.871952 0 0
        2  1    1    2  501    0          14.384711          63.640278          194.45489          205.10928               0.33 0 9
       21  1    1    2  503  501         -36.380626         -24.981613           254.7601          258.55433                  0 0 9
      -13  1    3    3    0    0          51.416988         -33.673385          774.23728          776.67302         0.10565837 0 9
       13  1    3    3    0    0         -29.421073           -4.98528          1218.1071          1218.4726         0.10565837 0 9
#no interesting event
# just testing
<rwgt >
<wgt id="1001" >4521.5</wgt>
<wgt id="1002" >4597.8</wgt>
<wgt id="1003" >4395.6</wgt>
<wgt id="1004" >3639.4</wgt>
<wgt id="1005" >3672.6</wgt>
<wgt id="1006" >3569.7</wgt>
<wgt id="1007" >5765.7</wgt>
<wgt id="1008" >5916.5</wgt>
<wgt id="1009" >5545.4</wgt>
</rgwt>
<weights ></weights>
<scales muf="41.533862" mur="41.533862" mups="41.533862"</scales>
</event>
<event>
    7      0      4521.5523      16.015118   0.0075467716     0.11734672
       21 -1    0    0  501  502                  0                  0          4.7207706          4.7207706                  0 0 9
        1 -1    0    0  503    0                  0                  0         -2337.9142          2337.9142                  0 0 9
       23  2    1    2    0    0         -24.045039          16.316187         -2187.6075          2189.4647          85.351346 0 0
        1  1    1    2  501    0          13.674423           11.26658         -64.732517           67.11433               0.33 0 9
       21  1    1    2  503  502          10.370615         -27.582768         -80.854632          86.057134                  0 0 9
      -11  1    3    3    0    0         -6.4340481         -25.747485         -266.95371          268.26967      0.00051099893 0 9
       11  1    3    3    0    0          -17.61099          42.063674         -1920.6537           1921.195      0.00051099893 0 9
#no interesting event
# just testing
<rwgt >
<wgt id="1001" >4521.6</wgt>
<wgt id="1002" >2534.4</wgt>
<wgt id="1003" >7069.4</wgt>
<wgt id="1004" >3431.7</wgt>
<wgt id="1005" >1987.4</wgt>
<wgt id="1006" >5279</wgt>
<wgt id="1007" >6195.7</wgt>
<wgt id="1008" >3344.9</wgt>
<wgt id="1009" >9860.1</wgt>
</rgwt>
<weights ></weights>
<scales muf="16.015118" mur="16.015118" mups="16.015118"</scales>
</event>
<event>
    7      0      4521.5523      40.359751   0.0075467716     0.11838589
       21 -1    0    0  503  502                  0                  0          5.1105016          5.1105016                  0 0 9
        2 -1    0    0  502    0                  0                  0         -2218.8662          2218.8662                  0 0 9
       23  2    1    2    0    0          24.492066          71.726224         -1021.5551          1028.3833          90.846119 0 0
        2  1    1    2  501    0         -25.167028         -28.806086         -826.03831          826.92356               0.33 0 9
       21  1    1    2  503  501          0.6749629         -42.920139         -366.16362          368.67111                  0 0 9
      -13  1    3    3    0    0          41.521902          17.272126         -206.81332           211.6463         0.10565837 0 9
       13  1    3    3    0    0         -17.029837          54.454098         -814.74177          816.73706         0.10565837 0 9
#no interesting event
# just testing
<rwgt >
<wgt id="1001" >4521.6</wgt>
<wgt id="1002" >4913.9</wgt>
<wgt id="1003" >4066.3</wgt>
<wgt id="1004" >3612.8</wgt>
<wgt id="1005" >3888.2</wgt>
<wgt id="1006" >3288.6</wgt>
<wgt id="1007" >5821</wgt>
<wgt id="1008" >6399.4</wgt>
<wgt id="1009" >5159.1</wgt>
</rgwt>
<weights ></weights>
<scales muf="40.359751" mur="40.359751" mups="40.359751"</scales>
</event>
<event>
    7      0      4521.5523       10.69673   0.0075467716     0.13463176
        1 -1    0    0  503    0                  0                  0          1315.4669          1315.4669                  0 0 9
       21 -1    0    0  501  502                  0                  0         -3.4468969          3.4468969                  0 0 9
       23  2    1    2    0    0          15.994459       -0.081383214          1075.6899          1079.7442          92.102563 0 0
        1  1    1    2  501    0          -10.57401          13.552956          185.81576          186.60948               0.33 0 9
       21  1    1    2  503  502         -5.4204493         -13.471573          50.513113          52.558911                  0 0 9
      -11  1    3    3    0    0         -7.7212391         -14.334877          34.109852           37.79667      0.00051099893 0 9
       11  1    3    3    0    0          23.715698          14.253494          1041.5801          1041.9475      0.00051099893 0 9
#no interesting event
# just testing
<rwgt >
<wgt id="1001" >4521.6</wgt>
<wgt id="1002" >4029.3</wgt>
<wgt id="1003" >5123.1</wgt>
<wgt id="1004" >3470</wgt>
<wgt id="1005" >3093.1</wgt>
<wgt id="1006" >3930.5</wgt>
<wgt id="1007" >6150.6</wgt>
<wgt id="1008" >5479</wgt>
<wgt id="1009" >6971.4</wgt>
</rgwt>
<weights ></weights>
<scales muf="10.69673" mur="10.69673" mups="10.69673"</scales>
</event>
<event>
    6      0      4521.5523      18.678427   0.0075467716     0.12454989
       21 -1    0    0  501  502                  0                  0          3.0514691          3.0514691                  0 0 9
        2 -1    0    0  503    0                  0                  0         -1293.9419          1293.9419                  0 0 9
        2  1    1    2  501    0          25.034216         -8.8598949         -202.34883          204.08422               0.33 0 9
       21  1    1    2  503  502         -43.580651         -7.5244638         -324.56579          327.56502                  0 0 9
      -13  1    1    2    0    0         -1.3928906         -6.0249009         -424.66732          424.71235         0.10565837 0 9
       13  1    1    2    0    0          19.939326           22.40926         -339.30964          340.63293         0.10565837 0 9
#no interesting event
# just testing
<rwgt >
<wgt id="1001" >4521.5</wgt>
<wgt id="1002" >4042.2</wgt>
<wgt id="1003" >5077.7</wgt>
<wgt id="1004" >3303.1</wgt>
<wgt id="1005" >2953</wgt>
<wgt id="1006" >3709.4</wgt>
<wgt id="1007" >6433.8</wgt>
<wgt id="1008" >5751.8</wgt>
<wgt id="1009" >7225.2</wgt>
</rgwt>
<weights ></weights>
<scales muf="18.678427" mur="18.678427" mups="18.678427"</scales>
</event>
<event>
    6      0      4521.5523      16.327447   0.0075467716     0.14303884
       21 -1    0    0  501  503                  0                  0          2.1978157          2.1978157                  0 0 9
       -2 -1    0    0    0  504                  0                  0         -677.86999          677.86999                  0 0 9
       -2  1    1    2    0  503         -12.102306         -15.987303         -87.021406           89.30226               0.33 0 9
       21  1    1    2  501  504          6.2655003          15.132507         -128.58299          129.62189                  0 0 9
      -13  1    1    2    0    0          4.7547258          1.2184137         -10.679729          11.754136         0.10565837 0 9
       13  1    1    2    0    0            1.08208        -0.36361777         -449.38705          449.38852         0.10565837 0 9
#no interesting event
# just testing
<rwgt >
<wgt id="1001" >4521.3</wgt>
<wgt id="1002" >3911.6</wgt>
<wgt id="1003" >5277.2</wgt>
<wgt id="1004" >3154.6</wgt>
<wgt id="1005" >2729.2</wgt>
<wgt id="1006" >3682</wgt>
<wgt id="1007" >6827.7</wgt>
<wgt id="1008" >5906.8</wgt>
<wgt id="1009" >7969.2</wgt>
</rgwt>
<weights ></weights>
<scales muf="16.327447" mur="16.327447" mups="16.327447"</scales>
</event>
<event>
    6      0     -4521.5523      12.293866   0.0075467716     0.14618166
        3 -1    0    0  503    0                  0                  0          131.76287          131.76287                  0 0 9
       21 -1    0    0  501  502                  0                  0          -9.618612           9.618612                  0 0 9
        3  1    1    2  501    0          17.682625          -1.069443          24.714449          30.411723                0.5 0 9
       21  1    1    2  503  502         -17.138574         0.56984917          38.706296          42.334771                  0 0 9
      -11  1    1    2    0    0         -3.3057141           10.70132          56.797738          57.891528      0.00051099893 0 9
       11  1    1    2    0    0          2.7616636         -10.201726          1.9252364          10.742836      0.00051099893 0 9
#no interesting event
# just testing
<rwgt >
<wgt id="1001" >-4520</wgt>
<wgt id="1002" >-3779.5</wgt>
<wgt id="1003" >-5460.7</wgt>
<wgt id="1004" >-3128.9</wgt>
<wgt id="1005" >-2616.2</wgt>
<wgt id="1006" >-3780.1</wgt>
<wgt id="1007" >-6897.2</wgt>
<wgt id="1008" >-5767.2</wgt>
<wgt id="1009" >-8332.8</wgt>
</rgwt>
<weights ></weights>
<scales muf="12.293866" mur="12.293866" mups="12.293866"</scales>
</event>
<event>
    6      0      4469.5343      12.998673   0.0075467716     0.14293885
       21 -1    0    0  501  502                  0                  0          3.6997349          3.6997349                  0 0 9
        2 -1    0    0  502    0                  0                  0          -1492.812           1492.812                  0 0 9
       23  2    1    2    0    0          -4.976484          16.160217         -1459.6458          1462.5367          90.341784 0 0
        2  1    1    2  501    0          4.9764842         -16.160216         -29.465637          33.974264               0.33 0 9
      -11  1    3    3    0    0          17.529262         -10.790479         -85.522198          87.964515      0.00051099893 0 9
       11  1    3    3    0    0         -22.505747          26.950695         -1374.1236          1374.5721      0.00051099893 0 9
#no interesting event
# just testing
<rwgt >
<wgt id="1001" >4469.6</wgt>
<wgt id="1002" >4672.9</wgt>
<wgt id="1003" >4079.4</wgt>
<wgt id="1004" >4389.3</wgt>
<wgt id="1005" >4593.9</wgt>
<wgt id="1006" >4002</wgt>
<wgt id="1007" >4399.3</wgt>
<wgt id="1008" >4591.1</wgt>
<wgt id="1009" >4022.5</wgt>
</rgwt>
<weights ></weights>
<scales muf="12.998673" mur="12.998673" mups="12.998673"</scales>
</event>
<event>
    6      0      4469.5343       13.66134   0.0075467716     0.12912212
        2 -1    0    0  502    0                  0                  0          1909.5118          1909.5118                  0 0 9
       21 -1    0    0  501  502                  0                  0          -1.526627           1.526627                  0 0 9
       23  2    1    2    0    0          11.295017          8.6865924          1486.6022          1489.4145          90.367875 0 0
        2  1    1    2  501    0         -11.295017         -8.6865905          421.38236          421.62334               0.33 0 9
      -13  1    3    3    0    0          27.605008          18.184713          1414.3949          1414.7812         0.10565837 0 9
       13  1    3    3    0    0         -16.309991         -9.4981222          72.207256          74.633297         0.10565837 0 9
#no interesting event
# just testing
<rwgt >
<wgt id="1001" >4469.5</wgt>
<wgt id="1002" >4169.7</wgt>
<wgt id="1003" >4781.9</wgt>
<wgt id="1004" >3597.9</wgt>
<wgt id="1005" >3356.6</wgt>
<wgt id="1006" >3849.3</wgt>
<wgt id="1007" >5709.5</wgt>
<wgt id="1008" >5326.4</wgt>
<wgt id="1009" >6108.4</wgt>
</rgwt>
<weights ></weights>
<scales muf="13.66134" mur="13.66134" mups="13.66134"</scales>
</event>
<event>
    6      0     -4469.5343      17.004057   0.0075467716     0.11458701
        2 -1    0    0  502    0                  0                  0           611.2113           611.2113                  0 0 9
       21 -1    0    0  501  502                  0                  0         -7.0749792          7.0749792                  0 0 9
       23  2    1    2    0    0         0.17082657          17.334093           585.6763          592.96117          91.025923 0 0
        2  1    1    2  501    0        -0.17082651         -17.334093           18.46136          25.326482               0.33 0 9
      -11  1    3    3    0    0          20.326961          43.233131          478.34376          480.72345      0.00051099893 0 9
       11  1    3    3    0    0         -20.156134         -25.899038          107.33255          112.23773      0.00051099893 0 9
#no interesting event
# just testing
<rwgt >
<wgt id="1001" >-4469.5</wgt>
<wgt id="1002" >-4612.7</wgt>
<wgt id="1003" >-4283.6</wgt>
<wgt id="1004" >-3551.5</wgt>
<wgt id="1005" >-3663.9</wgt>
<wgt id="1006" >-3405.5</wgt>
<wgt id="1007" >-5786.8</wgt>
<wgt id="1008" >-5974.3</wgt>
<wgt id="1009" >-5543.2</wgt>
</rgwt>
<weights ></weights>
<scales muf="17.004057" mur="17.004057" mups="17.004057"</scales>
</event>
<event>
    6      0      4469.5343      28.248946   0.0075467716     0.14090617
       21 -1    0    0  501  502                  0                  0          17.926345          17.926345                  0 0 9
        1 -1    0    0  502    0                  0                  0         -309.54262          309.54262                  0 0 9
       23  2    1    2    0    0         -22.921523          13.227835          -116.8548          150.71483          91.430538 0 0
        1  1    1    2  501    0          22.921522         -13.227836         -174.76209          176.75483               0.33 0 9
      -11  1    3    3    0    0         -28.320132          1.8571203         -129.67729          132.74667      0.00051099893 0 9
       11  1    3    3    0    0          5.3986104          11.370715          12.822495          17.968154      0.00051099893 0 9
#no interesting event
# just testing
<rwgt >
<wgt id="1001" >4469.5</wgt>
<wgt id="1002" >4715.8</wgt>
<wgt id="1003" >4098.6</wgt>
<wgt id="1004" >3937.1</wgt>
<wgt id="1005" >4157.3</wgt>
<wgt id="1006" >3606.8</wgt>
<wgt id="1007" >5173.3</wgt>
<wgt id="1008" >5453</wgt>
<wgt id="1009" >4749.8</wgt>
</rgwt>
<weights ></weights>
<scales muf="28.248946" mur="28.248946" mups="28.248946"</scales>
</event>
<event>
    6      0      4469.5343      11.196681   0.0075467716     0.13463152
       -1 -1    0    0    0  501                  0                  0          4.1454773          4.1454773                  0 0 9
        1 -1    0    0  502    0                  0                  0          -1094.811           1094.811                  0 0 9
       23  2    1    2    0    0         -23.021919          2.1290803          -443.5193          451.39739          80.719857 0 0
       21  1    1    2  502  501           23.02192         -2.1290804         -647.14694          647.55981                  0 0 9
      -13  1    3    3    0    0         -19.288776         -10.482238         -435.37333          435.92646         0.10565837 0 9
       13  1    3    3    0    0         -3.7331437          12.611318         -8.1459729          15.470932         0.10565837 0 9
#no interesting event
# just testing
<rwgt >
<wgt id="1001" >4469.6</wgt>
<wgt id="1002" >3805.2</wgt>
<wgt id="1003" >5321.5</wgt>
<wgt id="1004" >3565.1</wgt>
<wgt id="1005" >3035.2</wgt>
<wgt id="1006" >4244.7</wgt>
<wgt id="1007" >5777.2</wgt>
<wgt id="1008" >4918.5</wgt>
<wgt id="1009" >6878.4</wgt>
</rgwt>
<weights ></weights>
<scales muf="11.196681" mur="11.196681" mups="11.196681"</scales>
</event>
<event>
    5      0     -4469.5343      11.905784   0.0075467716      0.1255047
        2 -1    0    0  502    0                  0                  0          541.32821          541.32821                  0 0 9
       21 -1    0    0  501  502                  0                  0         -3.3206878          3.3206878                  0 0 9
        2  1    1    2  501    0          15.340409         -7.5541799          26.274195          31.350215               0.33 0 9
      -13  1    1    2    0    0         -2.2343703         -3.1016006          5.0531121            6.33699         0.10565837 0 9
       13  1    1    2    0    0         -13.106038           10.65578          506.68081          506.96229         0.10565837 0 9
#no interesting event
# just testing
<rwgt >
<wgt id="1001" >-4469.5</wgt>
<wgt id="1002" >-5329.4</wgt>
<wgt id="1003" >-3501.2</wgt>
<wgt id="1004" >-3328</wgt>
<wgt id="1005" >-3967.7</wgt>
<wgt id="1006" >-2608.4</wgt>
<wgt id="1007" >-6307.3</wgt>
<wgt id="1008" >-7521.7</wgt>
<wgt id="1009" >-4938.3</wgt>
</rgwt>
<weights ></weights>
<scales muf="11.905784" mur="11.905784" mups="11.905784"</scales>
</event>
<event>
    6      0      4469.5343      24.718192   0.0075467716     0.14298983
        2 -1    0    0  502    0                  0                  0          2841.6716          2841.6716                  0 0 9
       21 -1    0    0  501  502                  0                  0         -1.9538315          1.9538315                  0 0 9
       23  2    1    2    0    0         -20.231298         -17.293135           1242.165           1245.851          91.990896 0 0
        2  1    1    2  501    0          20.231298          17.293134          1597.5519          1597.7736               0.33 0 9
      -13  1    3    3    0    0         -26.644959         -9.5910211          108.28792          111.92956         0.10565837 0 9
       13  1    3    3    0    0          6.4136612         -7.7021133          1133.8772          1133.9215         0.10565837 0 9
#no interesting event
# just testing
<rwgt >
<wgt id="1001" >4469.5</wgt>
<wgt id="1002" >4177.8</wgt>
<wgt id="1003" >4643.9</wgt>
<wgt id="1004" >4174.9</wgt>
<wgt id="1005" >3905.2</wgt>
<wgt id="1006" >4334</wgt>
<wgt id="1007" >4770.6</wgt>
<wgt id="1008" >4454.5</wgt>
<wgt id="1009" >4962.9</wgt>
</rgwt>
<weights ></weights>
<scales muf="24.718192" mur="24.718192" mups="24.718192"</scales>
</event>
<event>
    5      0      4469.5343      24.909006   0.0075467716     0.12217037
       21 -1    0    0  501  502                  0                  0          2.3655165          2.3655165                  0 0 9
        2 -1    0    0  502    0                  0                  0         -959.41507          959.41507                  0 0 9
        2  1    1    2  501    0          19.878936         -14.616866          -196.0225          197.56962               0.33 0 9
      -13  1    1    2    0    0         -32.143761           25.93791          -294.1612          297.04683         0.10565837 0 9
       13  1    1    2    0    0          12.264826         -11.321044         -466.86523          467.16351         0.10565837 0 9
#no interesting event
# just testing
<rwgt >
<wgt id="1001" >4469.5</wgt>
<wgt id="1002" >4837.4</wgt>
<wgt id="1003" >3964.7</wgt>
<wgt id="1004" >4453.6</wgt>
<wgt id="1005" >4825</wgt>
<wgt id="1006" >3946.7</wgt>
<wgt id="1007" >4330.5</wgt>
<wgt id="1008" >4679.1</wgt>
<wgt id="1009" >3847.6</wgt>
</rgwt>
<weights ></weights>
<scales muf="24.909006" mur="24.909006" mups="24.909006"</scales>
</event>
<event>
    6      0      4469.5343      17.686068   0.0075467716     0.12923103
       21 -1    0    0  501  502                  0                  0          3.5560749          3.5560749                  0 0 9
        1 -1    0    0  502    0                  0                  0         -878.62415          878.62415                  0 0 9
       23  2    1    2    0    0          8.0510797         -15.737621         -770.97448          776.59575          91.579571 0 0
        1  1    1    2  501    0         -8.0510791          15.737622          -104.0929          105.58377               0.33 0 9
      -11  1    3    3    0    0         -2.4045827         -41.687077         -173.02933          177.99647      0.00051099893 0 9
       11  1    3    3    0    0          10.455662          25.949455         -597.94517           598.5993      0.00051099893 0 9
#no interesting event
# just testing
<rwgt >
<wgt id="1001" >4469.6</wgt>
<wgt id="1002" >4719.5</wgt>
<wgt id="1003" >4094.4</wgt>
<wgt id="1004" >4495.4</wgt>
<wgt id="1005" >4751.7</wgt>
<wgt id="1006" >4113.9</wgt>
<wgt id="1007" >4271</wgt>
<wgt id="1008" >4502</wgt>
<wgt id="1009" >3919.3</wgt>
</rgwt>
<weights ></weights>
<scales muf="17.686068" mur="17.686068" mups="17.686068"</scales>
</event>
<event>
    6      0      4469.5343      16.145086   0.0075467716     0.14001452
       21 -1    0    0  501  502                  0                  0          2.6601221          2.6601221                  0 0 9
        2 -1    0    0  502    0                  0                  0         -2571.1205          2571.1205                  0 0 9
       23  2    1    2    0    0           13.32334         -18.172355         -2503.7012          2505.2122          84.027188 0 0
        2  1    1    2  501    0          -13.32334          18.172355         -64.755785          68.565053               0.33 0 9
      -11  1    3    3    0    0          25.205938         -22.033796         -2443.4401          2443.6695      0.00051099893 0 9
       11  1    3    3    0    0         -11.882598           3.861441         -60.261079          61.542705      0.00051099893 0 9
#no interesting event
# just testing
<rwgt >
<wgt id="1001" >4469.6</wgt>
<wgt id="1002" >4304.6</wgt>
<wgt id="1003" >4470</wgt>
<wgt id="1004" >4330.2</wgt>
<wgt id="1005" >4174.3</wgt>
<wgt id="1006" >4326.5</wgt>
<wgt id="1007" >4497.9</wgt>
<wgt id="1008" >4325.1</wgt>
<wgt id="1009" >4505.4</wgt>
</rgwt>
<weights ></weights>
<scales muf="16.145086" mur="16.145086" mups="16.145086"</scales>
</event>
<event>
    6      0     -4469.5343      14.763028   0.0075467716     0.12680303
       21 -1    0    0  501  502                  0                  0          6.5834962          6.5834962                  0 0 9
        1 -1    0    0  502    0                  0                  0         -881.02141          881.02141                  0 0 9
       23  2    1    2    0    0         -9.3414986         -36.636871         -773.19072          779.52789          91.707805 0 0
        1  1    1    2  501    0          9.3414992          36.636873         -101.24638          108.07619               0.33 0 9
      -11  1    3    3    0    0         -4.1257073         -51.076231         -211.19966          217.32717      0.00051099893 0 9
       11  1    3    3    0    0         -5.2157919          14.439358         -561.99107          562.20073      0.00051099893 0 9
#no interesting event
# just testing
<rwgt >
<wgt id="1001" >-4469.2</wgt>
<wgt id="1002" >-3949.8</wgt>
<wgt id="1003" >-5115.5</wgt>
<wgt id="1004" >-3611.5</wgt>
<wgt id="1005" >-3191.7</wgt>
<wgt id="1006" >-4133.8</wgt>
<wgt id="1007" >-5680.9</wgt>
<wgt id="1008" >-5020.5</wgt>
<wgt id="1009" >-6502.3</wgt>
</rgwt>
<weights ></weights>
<scales muf="14.763028" mur="14.763028" mups="14.763028"</scales>
</event>
<event>
    6      0      4469.5343      20.617647   0.0075467716     0.14721339
        2 -1    0    0  502    0                  0                  0          647.71609          647.71609                  0 0 9
       21 -1    0    0  501  502                  0                  0         -3.9112932          3.9112932                  0 0 9
       23  2    1    2    0    0          5.1054117         -18.214989           591.8218          596.30845          70.518605 0 0
        2  1    1    2  501    0         -5.1054122           18.21499          51.983948          55.319895               0.33 0 9
      -11  1    3    3    0    0         -4.6702428          3.2750783          531.50706          531.53766      0.00051099893 0 9
       11  1    3    3    0    0           9.775655         -21.490068          60.314744          64.770787      0.00051099893 0 9
#no interesting event
# just testing
<rwgt >
<wgt id="1001" >4469.3</wgt>
<wgt id="1002" >4108.2</wgt>
<wgt id="1003" >4851.3</wgt>
<wgt id="1004" >3491.4</wgt>
<wgt id="1005" >3209.2</wgt>
<wgt id="1006" >3789.8</wgt>
<wgt id="1007" >5937.5</wgt>
<wgt id="1008" >5457.7</wgt>
<wgt id="1009" >6445</wgt>
</rgwt>
<weights ></weights>
<scales muf="20.617647" mur="20.617647" mups="20.617647"</scales>
</event>
<event>
    6      0      4469.5343       28.51616   0.0075467716     0.10058164
       21 -1    0    0  501  502                  0                  0          17.701636          17.701636                  0 0 9
        2 -1    0    0  502    0                  0                  0         -289.01452          289.01452                  0 0 9
       23  2    1    2    0    0         -1.8923204          31.491577         -251.19657          269.29828          91.796221 0 0
        2  1    1    2  501    0          1.8923193         -31.491578         -20.115819          37.417315               0.33 0 9
      -11  1    3    3    0    0          42.621775          2.5756882          -90.62845          100.18366      0.00051099893 0 9
       11  1    3    3    0    0         -44.514094           28.91589         -160.56811          169.11461      0.00051099893 0 9
#no interesting event
# just testing
<rwgt >
<wgt id="1001" >4469.6</wgt>
<wgt id="1002" >4700.6</wgt>
<wgt id="1003" >4141.6</wgt>
<wgt id="1004" >4381.8</wgt>
<wgt id="1005" >4611.8</wgt>
<wgt id="1006" >4057.3</wgt>
<wgt id="1007" >4462.8</wgt>
<wgt id="1008" >4687.9</wgt>
<wgt id="1009" >4140.1</wgt>
</rgwt>
<weights ></weights>
<scales muf="28.51616" mur="28.51616" mups="28.51616"</scales>
</event>
<event>
    6      0      4469.5343      21.752695   0.0075467716     0.12886912
       21 -1    0    0  501  502                  0                  0          3.5618206          3.5618206                  0 0 9
        2 -1    0    0  502    0                  0                  0         -1197.7278          1197.7278                  0 0 9
       23  2    1    2    0    0         -23.396225          -10.06389         -1087.4985          1091.6232          91.321615 0 0
        2  1    1    2  501    0          23.396225           10.06389         -106.66879           109.6677               0.33 0 9
      -13  1    3    3    0    0         -11.569986          31.596072          -181.6476          184.73776         0.10565837 0 9
       13  1    3    3    0    0         -11.826239         -41.659962         -905.85086          906.88544         0.10565837 0 9
#no interesting event
# just testing
<rwgt >
<wgt id="1001" >4469.6</wgt>
<wgt id="1002" >5283</wgt>
<wgt id="1003" >3617</wgt>
<wgt id="1004" >3731.8</wgt>
<wgt id="1005" >4392.2</wgt>
<wgt id="1006" >3036.4</wgt>
<wgt id="1007" >5495.4</wgt>
<wgt id="1008" >6525.4</wgt>
<wgt id="1009" >4420.8</wgt>
</rgwt>
<weights ></weights>
<scales muf="21.752695" mur="21.752695" mups="21.752695"</scales>
</event>
<event>
    5      0      4469.5343      13.909378   0.0075467716     0.14991961
        2 -1    0    0  502    0                  0                  0          1378.7007          1378.7007                  0 0 9
       21 -1    0    0  501  502                  0                  0          -0.459272           0.459272                  0 0 9
        2  1    1    2  501    0          12.710519         0.16926371          536.79418          536.94477               0.33 0 9
      -11  1    1    2    0    0           4.853445          7.8658634          572.76724          572.84181      0.00051099893 0 9
       11  1    1    2    0    0         -17.563964         -8.0351271          268.66774          269.36111      0.00051099893 0 9
#no interesting event
# just testing
<rwgt >
<wgt id="1001" >4469.5</wgt>
<wgt id="1002" >5946.6</wgt>
<wgt id="1003" >3087.9</wgt>
<wgt id="1004" >3679.7</wgt>
<wgt id="1005" >4859.9</wgt>
<wgt id="1006" >2565.5</wgt>
<wgt id="1007" >5611.1</wgt>
<wgt id="1008" >7529.3</wgt>
<wgt id="1009" >3835</wgt>
</rgwt>
<weights ></weights>
<scales muf="13.909378" mur="13.909378" mups="13.909378"</scales>
</event>
<event>
    6      0      4469.5343      21.820297   0.0075467716     0.12635525
        2 -1    0    0  502    0                  0                  0          1257.9837          1257.9837                  0 0 9
       21 -1    0    0  501  502                  0                  0         -3.1849794          3.1849794                  0 0 9
       23  2    1    2    0    0          21.667468          4.8854127          637.60685          643.57718          84.591576 0 0
        2  1    1    2  501    0         -21.667468         -4.8854115          617.19051          617.59014               0.33 0 9
      -13  1    3    3    0    0         -6.2090541         -15.950502          26.929701          31.909103         0.10565837 0 9
       13  1    3    3    0    0          27.876522          20.835913          610.67715          611.66807         0.10565837 0 9
#no interesting event
# just testing
<rwgt >
<wgt id="1001" >4469.5</wgt>
<wgt id="1002" >4639.5</wgt>
<wgt id="1003" >4173.9</wgt>
<wgt id="1004" >4777.3</wgt>
<wgt id="1005" >4967.2</wgt>
<wgt id="1006" >4454.2</wgt>
<wgt id="1007" >3821</wgt>
<wgt id="1008" >3953.4</wgt>
<wgt id="1009" >3579.8</wgt>
</rgwt>
<weights ></weights>
<scales muf="21.820297" mur="21.820297" mups="21.820297"</scales>
</event>
<event>
    5      0      4469.5343      10.056087   0.0075467716      0.1407897
        2 -1    0    0  502    0                  0                  0          747.37964          747.37964                  0 0 9
       21 -1    0    0  501  502                  0                  0         -1.9844815          1.9844815                  0 0 9
        2  1    1    2  501    0          4.5298369          15.179681          52.871605          55.194725               0.33 0 9
      -11  1    1    2    0    0         -17.372253         -18.748558          223.54857          225.00504      0.00051099893 0 9
       11  1    1    2    0    0          12.842416           3.568877          468.97563          469.16501      0.00051099893 0 9
#no interesting event
# just testing
<rwgt >
<wgt id="1001" >4469.5</wgt>
<wgt id="1002" >4393</wgt>
<wgt id="1003" >4479</wgt>
<wgt id="1004" >3528.9</wgt>
<wgt id="1005" >3468.4</wgt>
<wgt id="1006" >3536.4</wgt>
<wgt id="1007" >5854.8</wgt>
<wgt id="1008" >5754.5</wgt>
<wgt id="1009" >5867.2</wgt>
</rgwt>
<weights ></weights>
<scales muf="10.056087" mur="10.056087" mups="10.056087"</scales>
</event>
<event>
    6      0      4469.5343      26.326016   0.0075467716     0.12780656
       21 -1    0    0  501  502                  0                  0          3.2872219          3.2872219                  0 0 9
        2 -1    0    0  502    0                  0                  0         -2060.7049          2060.7049                  0 0 9
       23  2    1    2    0    0         -18.014219         -26.039561         -1937.0352          1939.5147          92.787763 0 0
        2  1    1    2  501    0           18.01422          26.039561         -120.38329          124.47817               0.33 0 9
      -13  1    3    3    0    0          28.262186          8.1510957         -292.93445          294.40754         0.10565837 0 9
       13  1    3    3    0    0         -46.276406         -34.190657         -1644.1007          1645.1072         0.10565837 0 9
#no interesting event
# just testing
<rwgt >
<wgt id="1001" >4469.6</wgt>
<wgt id="1002" >6871.9</wgt>
<wgt id="1003" >1983.4</wgt>
<wgt id="1004" >3816.4</wgt>
<wgt id="1005" >5737</wgt>
<wgt id="1006" >1823.5</wgt>
<wgt id="1007" >5364.8</wgt>
<wgt id="1008" >8459.5</wgt>
<wgt id="1009" >2171.2</wgt>
</rgwt>
<weights ></weights>
<scales muf="26.326016" mur="26.326016" mups="26.326016"</scales>
</event>
<event>
    5      0      4469.5343      33.713671   0.0075467716     0.13336994
        2 -1    0    0  502    0                  0                  0          1084.7869          1084.7869                  0 0 9
       21 -1    0    0  501  502                  0                  0         -3.4504462          3.4504462                  0 0 9
        2  1    1    2  501    0          19.418356         -28.301317          104.71039          110.19261               0.33 0 9
      -11  1    1    2    0    0         -12.990622         -1.5672532          95.858235          96.747164      0.00051099893 0 9
       11  1    1    2    0    0         -6.4277343           29.86857          880.76855           881.2983      0.00051099893 0 9
#no interesting event
# just testing
<rwgt >
<wgt id="1001" >4469.5</wgt>
<wgt id="1002" >4710.9</wgt>
<wgt id="1003" >4096.9</wgt>
<wgt id="1004" >4102</wgt>
<wgt id="1005" >4328.4</wgt>
<wgt id="1006" >3754.7</wgt>
<wgt id="1007" >4900.3</wgt>
<wgt id="1008" >5157</wgt>
<wgt id="1009" >4500.4</wgt>
</rgwt>
<weights ></weights>
<scales muf="33.713671" mur="33.713671" mups="33.713671"</scales>
</event>
<event>
    6      0      4469.5343      79.504898   0.0075467716     0.10637347
       21 -1    0    0  502  501                  0                  0          11.439367          11.439367                  0 0 9
        2 -1    0    0  501    0                  0                  0         -2296.8944          2296.8944                  0 0 9
       23  2    1    2    0    0         -147.33435         -23.051124          -1247.723          1259.9414          91.655554 0 0
        2  1    1    2  502    0          147.33435          23.051121         -1037.7313          1048.3917               0.33 0 9
      -11  1    3    3    0    0         -62.739444         -1.7235163         -227.61936          236.11391      0.00051099893 0 9
       11  1    3    3    0    0         -84.594904         -21.327605         -1020.1037          1023.8275      0.00051099893 0 9
#no interesting event
# just testing
<rwgt >
<wgt id="1001" >4469.6</wgt>
<wgt id="1002" >3906.1</wgt>
<wgt id="1003" >5160.9</wgt>
<wgt id="1004" >3736.9</wgt>
<wgt id="1005" >3265.8</wgt>
<wgt id="1006" >4314.9</wgt>
<wgt id="1007" >5445.1</wgt>
<wgt id="1008" >4758.6</wgt>
<wgt id="1009" >6287.3</wgt>
</rgwt>
<weights ></weights>
<scales muf="79.504898" mur="79.504898" mups="79.504898"</scales>
</event>
<event>
    6      0      4469.5343      48.545037   0.0075467716     0.11844193
        2 -1    0    0  502    0                  0                  0          1330.6983          1330.6983                  0 0 9
       21 -1    0    0  501  502                  0                  0         -6.8112114          6.8112114                  0 0 9
       23  2    1    2    0    0          58.482447          9.0375407          1121.5636          1126.7092          89.815989 0 0
        2  1    1    2  501    0         -58.482446         -9.0375401          202.32439          210.80119               0.33 0 9
      -11  1    3    3    0    0         -8.3371448         -10.628068          639.18858          639.33129      0.00051099893 0 9
       11  1    3    3    0    0          66.819591          19.665608          482.37498          487.37789      0.00051099893 0 9
#no interesting event
# just testing
<rwgt >
<wgt id="1001" >4469.5</wgt>
<wgt id="1002" >3862.7</wgt>
<wgt id="1003" >5222.4</wgt>
<wgt id="1004" >3662.4</wgt>
<wgt id="1005" >3165.2</wgt>
<wgt id="1006" >4279.5</wgt>
<wgt id="1007" >5582.3</wgt>
<wgt id="1008" >4824.4</wgt>
<wgt id="1009" >6522.7</wgt>
</rgwt>
<weights ></weights>
<scales muf="48.545037" mur="48.545037" mups="48.545037"</scales>
</event>
<event>
    6      0      4469.5343      17.647121   0.0075467716     0.13166182
        2 -1    0    0  502    0                  0                  0          1621.3882          1621.3882                  0 0 9
       21 -1    0    0  501  502                  0                  0         -6.1347933          6.1347933                  0 0 9
       23  2    1    2    0    0          16.784205          6.2126024          1599.2967          1603.5435          115.24603 0 0
        2  1    1    2  501    0         -16.784206         -6.2126022          15.957759          23.980512               0.33 0 9
      -11  1    3    3    0    0          2.8539817         -37.693061          203.13638          206.62357      0.00051099893 0 9
       11  1    3    3    0    0          13.930224          43.905664          1396.1603            1396.92      0.00051099893 0 9
#no interesting event
# just testing
<rwgt >
<wgt id="1001" >4469.5</wgt>
<wgt id="1002" >4432.4</wgt>
<wgt id="1003" >4408.1</wgt>
<wgt id="1004" >3956.1</wgt>
<wgt id="1005" >3924</wgt>
<wgt id="1006" >3900.9</wgt>
<wgt id="1007" >5140.5</wgt>
<wgt id="1008" >5096.5</wgt>
<wgt id="1009" >5071</wgt>
</rgwt>
<weights ></weights>
<scales muf="17.647121" mur="17.647121" mups="17.647121"</scales>
</event>
<event>
    6      0      4469.5343      28.944852   0.0075467716     0.13102307
        2 -1    0    0  502    0                  0                  0           1391.673           1391.673                  0 0 9
       21 -1    0    0  501  502                  0                  0         -2.7993644          2.7993644                  0 0 9
       23  2    1    2    0    0          3.2917973         -28.639321          1037.6534          1042.0709          91.411565 0 0
        2  1    1    2  501    0         -3.2917974          28.639319           351.2196          352.40085               0.33 0 9
      -11  1    3    3    0    0         -32.068142         -12.156799          834.56079          835.26515      0.00051099893 0 9
       11  1    3    3    0    0          35.359939          -16.48252          203.09255          206.80567      0.00051099893 0 9
#no interesting event
# just testing
<rwgt >
<wgt id="1001" >4469.5</wgt>
<wgt id="1002" >5800.5</wgt>
<wgt id="1003" >3179.6</wgt>
<wgt id="1004" >3681.5</wgt>
<wgt id="1005" >4752.3</wgt>
<wgt id="1006" >2640.9</wgt>
<wgt id="1007" >5579.8</wgt>
<wgt id="1008" >7283.1</wgt>
<wgt id="1009" >3933.8</wgt>
</rgwt>
<weights ></weights>
<scales muf="28.944852" mur="28.944852" mups="28.944852"</scales>
</event>
<event>
    6      0      4469.5343      19.253329   0.0075467716     0.13431384
       21 -1    0    0  501  502                  0                  0          3.0611876          3.0611876                  0 0 9
        1 -1    0    0  502    0                  0                  0         -1063.4227          1063.4227                  0 0 9
       23  2    1    2    0    0         -9.2667971         -16.208094         -958.23986          962.66905           90.32995 0 0
        1  1    1    2  501    0           9.266797          16.208094         -102.12093          103.81411               0.33 0 9
      -11  1    3    3    0    0           2.518037          20.117375         -54.927734          58.550024      0.00051099893 0 9
       11  1    3    3    0    0         -11.784834         -36.325469         -903.31213          904.11903      0.00051099893 0 9
#no interesting event
# just testing
<rwgt >
<wgt id="1001" >4469.6</wgt>
<wgt id="1002" >4708.3</wgt>
<wgt id="1003" >4098.8</wgt>
<wgt id="1004" >3990.7</wgt>
<wgt id="1005" >4204.7</wgt>
<wgt id="1006" >3659.3</wgt>
<wgt id="1007" >5086.5</wgt>
<wgt id="1008" >5357.1</wgt>
<wgt id="1009" >4665.3</wgt>
</rgwt>
<weights ></weights>
<scales muf="19.253329" mur="19.253329" mups="19.253329"</scales>
</event>
<event>
    6      0     -4469.5343      12.544833   0.0075467716     0.13257068
       21 -1    0    0  501  502                  0                  0          5.2537626          5.2537626                  0 0 9
        1 -1    0    0  502    0                  0                  0         -932.45337          932.45337                  0 0 9
       23  2    1    2    0    0         -14.805193         0.65117865          -910.6348          915.47848          92.873536 0 0
        1  1    1    2  501    0          14.805192        -0.65117879         -16.565363          22.229213               0.33 0 9
      -11  1    3    3    0    0          -18.77242         -35.212266         -200.76132          204.68858      0.00051099893 0 9
       11  1    3    3    0    0           3.967228          35.863445         -709.87349          710.78991      0.00051099893 0 9
#no interesting event
# just testing
<rwgt >
<wgt id="1001" >-4469.6</wgt>
<wgt id="1002" >-5227.1</wgt>
<wgt id="1003" >-3472.5</wgt>
<wgt id="1004" >-3092.9</wgt>
<wgt id="1005" >-3694.4</wgt>
<wgt id="1006" >-2309.9</wgt>
<wgt id="1007" >-6720.8</wgt>
<wgt id="1008" >-7703.9</wgt>
<wgt id="1009" >-5409.6</wgt>
</rgwt>
<weights ></weights>
<scales muf="12.544833" mur="12.544833" mups="12.544833"</scales>
</event>
<event>
    6      0      4469.5343      15.201745   0.0075467716     0.13723177
       21 -1    0    0  501  502                  0                  0          3.1545137          3.1545137                  0 0 9
        1 -1    0    0  502    0                  0                  0         -947.91713          947.91713                  0 0 9
       23  2    1    2    0    0        -0.23265403          14.684194         -874.17217          878.96896          90.519405 0 0
        1  1    1    2  501    0         0.23265412         -14.684194         -70.590961          72.103206               0.33 0 9
      -13  1    3    3    0    0         -5.6987868          29.082328         -848.59861          849.11594         0.10565837 0 9
       13  1    3    3    0    0          5.4661327         -14.398134         -25.573574          29.853035         0.10565837 0 9
#no interesting event
# just testing
<rwgt >
<wgt id="1001" >4469.6</wgt>
<wgt id="1002" >4765.1</wgt>
<wgt id="1003" >4036.8</wgt>
<wgt id="1004" >3856.6</wgt>
<wgt id="1005" >4111.5</wgt>
<wgt id="1006" >3483.7</wgt>
<wgt id="1007" >5307.9</wgt>
<wgt id="1008" >5659.1</wgt>
<wgt id="1009" >4793.2</wgt>
</rgwt>
<weights ></weights>
<scales muf="15.201745" mur="15.201745" mups="15.201745"</scales>
</event>
<event>
    5      0      4469.5343      23.328732   0.0075467716     0.13355898
        2 -1    0    0  502    0                  0                  0          1137.5955          1137.5955                  0 0 9
       21 -1    0    0  501  502                  0                  0          -3.650148           3.650148                  0 0 9
        2  1    1    2  501    0          15.838647          2.9593757          18.109313          24.242045               0.33 0 9
      -11  1    1    2    0    0         -7.5719588          -14.00487          1025.1951          1025.3187      0.00051099893 0 9
       11  1    1    2    0    0         -8.2666886          11.045495          90.641579          91.685533      0.00051099893 0 9
#no interesting event
# just testing
<rwgt >
<wgt id="1001" >4469.5</wgt>
<wgt id="1002" >4782.1</wgt>
<wgt id="1003" >3984.8</wgt>
<wgt id="1004" >4471.5</wgt>
<wgt id="1005" >4789.9</wgt>
<wgt id="1006" >3981.8</wgt>
<wgt id="1007" >4268.7</wgt>
<wgt id="1008" >4557.7</wgt>
<wgt id="1009" >3813.6</wgt>
</rgwt>
<weights ></weights>
<scales muf="23.328732" mur="23.328732" mups="23.328732"</scales>
</event>
<event>
    5      0      4469.5343      11.461006   0.0075467716     0.15456996
        2 -1    0    0  502    0                  0                  0          408.38777          408.38777                  0 0 9
       21 -1    0    0  501  502                  0                  0         -1.2889884          1.2889884                  0 0 9
        2  1    1    2  501    0         -7.3552965         -9.2295468          105.54436          106.20266               0.33 0 9
      -13  1    1    2    0    0          2.5711191         -10.755228          57.344396          58.400997         0.10565837 0 9
       13  1    1    2    0    0          4.7841773          19.984775          244.21091          245.07399         0.10565837 0 9
#no interesting event
# just testing
<rwgt >
<wgt id="1001" >4469.5</wgt>
<wgt id="1002" >6241.3</wgt>
<wgt id="1003" >2886.8</wgt>
<wgt id="1004" >3583.7</wgt>
<wgt id="1005" >4982.1</wgt>
<wgt id="1006" >2328.1</wgt>
<wgt id="1007" >5796.4</wgt>
<wgt id="1008" >8133.9</wgt>
<wgt id="1009" >3719.9</wgt>
</rgwt>
<weights ></weights>
<scales muf="11.461006" mur="11.461006" mups="11.461006"</scales>
</event>
<event>
    5      0      2525.6858      28.968072   0.0075467716     0.14720163
       -2 -1    0    0    0  501                  0                  0          1.1486218          1.1486218                  0 0 9
        2 -1    0    0  501    0                  0                  0         -1952.7594          1952.7594                  0 0 9
       23  2    1    2    0    0     -5.1493437e-07     -5.8101136e-08         -1951.6114          1953.9087          94.720289 0 0
      -13  1    3    3    0    0          14.070449          -19.44256         -1818.0278          1818.1862         0.10565837 0 9
       13  1    3    3    0    0         -14.070449           19.44256         -133.58361          135.72245         0.10565837 0 9
#no interesting event
# just testing
<rwgt >
<wgt id="1001" >2525.7</wgt>
<wgt id="1002" >3918.3</wgt>
<wgt id="1003" >1207.6</wgt>
<wgt id="1004" >2366.8</wgt>
<wgt id="1005" >3593.6</wgt>
<wgt id="1006" >1203.4</wgt>
<wgt id="1007" >2736.6</wgt>
<wgt id="1008" >4350</wgt>
<wgt id="1009" >1212.5</wgt>
</rgwt>
<weights ></weights>
<scales muf="28.968072" mur="28.968072" mups="28.968072"</scales>
</event>
<event>
    4      0      2525.6858       35.54785   0.0075467716     0.12590545
       -1 -1    0    0    0  501                  0                  0         0.34910822         0.34910822                  0 0 9
        1 -1    0    0  501    0                  0                  0         -904.91106          904.91106                  0 0 9
      -13  1    1    2    0    0         -1.1544994           11.30131         -800.38258           800.4632         0.10565837 0 9
       13  1    1    2    0    0          1.1544994          -11.30131         -104.18012          104.79771         0.10565837 0 9
#no interesting event
# just testing
<rwgt >
<wgt id="1001" >2525.7</wgt>
<wgt id="1002" >2464.1</wgt>
<wgt id="1003" >2557.1</wgt>
<wgt id="1004" >2272.1</wgt>
<wgt id="1005" >2216.7</wgt>
<wgt id="1006" >2300.4</wgt>
<wgt id="1007" >2844.8</wgt>
<wgt id="1008" >2775.5</wgt>
<wgt id="1009" >2880.2</wgt>
</rgwt>
<weights ></weights>
<scales muf="35.54785" mur="35.54785" mups="35.54785"</scales>
</event>
<event>
    4      0      2525.6858      30.260401   0.0075467716     0.14599303
        2 -1    0    0  501    0                  0                  0          1407.5197          1407.5197                  0 0 9
       -2 -1    0    0    0  501                  0                  0        -0.16264252         0.16264252                  0 0 9
      -11  1    1    2    0    0         -12.193122          6.8368084          972.96264          973.06306      0.00051099893 0 9
       11  1    1    2    0    0          12.193122         -6.8368084          434.39568          434.62055      0.00051099893 0 9
#no interesting event
# just testing
<rwgt >
<wgt id="1001" >2525.6</wgt>
<wgt id="1002" >2533</wgt>
<wgt id="1003" >2433.3</wgt>
<wgt id="1004" >2234.6</wgt>
<wgt id="1005" >2241</wgt>
<wgt id="1006" >2152.9</wgt>
<wgt id="1007" >2907.2</wgt>
<wgt id="1008" >2915.6</wgt>
<wgt id="1009" >2800.9</wgt>
</rgwt>
<weights ></weights>
<scales muf="30.260401" mur="30.260401" mups="30.260401"</scales>
</event>
<event>
    5      0      2525.6858      90.348933   0.0075467716      0.1158792
        1 -1    0    0  501    0                  0                  0          2.4953818          2.4953818                  0 0 9
       -1 -1    0    0    0  501                  0                  0         -817.80566          817.80566                  0 0 9
       23  2    1    2    0    0      8.3386101e-10     -6.5507579e-10         -815.30929          820.30005          90.348933 0 0
      -13  1    3    3    0    0         -36.420124          -26.32893         -365.96587          368.71489         0.10565837 0 9
       13  1    3    3    0    0          36.420124           26.32893         -449.34342          451.58516         0.10565837 0 9
#no interesting event
# just testing
<rwgt >
<wgt id="1001" >2525.7</wgt>
<wgt id="1002" >2238.2</wgt>
<wgt id="1003" >2880.2</wgt>
<wgt id="1004" >2291.2</wgt>
<wgt id="1005" >2030.5</wgt>
<wgt id="1006" >2612.8</wgt>
<wgt id="1007" >2815.2</wgt>
<wgt id="1008" >2494.8</wgt>
<wgt id="1009" >3210.3</wgt>
</rgwt>
<weights ></weights>
<scales muf="90.348933" mur="90.348933" mups="90.348933"</scales>
</event>
<event>
    4      0      2525.6858      30.598265   0.0075467716      0.1506738
       -2 -1    0    0    0  501                  0                  0         0.16568908         0.16568908                  0 0 9
        2 -1    0    0  501    0                  0                  0         -1412.6594          1412.6594                  0 0 9
      -13  1    1    2    0    0         -13.396642          6.7122562         -848.77372          848.90598         0.10565837 0 9
       13  1    1    2    0    0          13.396642         -6.7122562         -563.72366          563.92277         0.10565837 0 9
#no interesting event
# just testing
<rwgt >
<wgt id="1001" >2525.7</wgt>
<wgt id="1002" >2847.3</wgt>
<wgt id="1003" >2168.3</wgt>
<wgt id="1004" >2527.1</wgt>
<wgt id="1005" >2853</wgt>
<wgt id="1006" >2166.5</wgt>
<wgt id="1007" >2523.7</wgt>
<wgt id="1008" >2839.5</wgt>
<wgt id="1009" >2170.7</wgt>
</rgwt>
<weights ></weights>
<scales muf="30.598265" mur="30.598265" mups="30.598265"</scales>
</event>
<event>
    5      0     -2525.6858      40.849355   0.0075467716     0.15749442
        1 -1    0    0  501    0                  0                  0          652.77111          652.77111                  0 0 9
       -1 -1    0    0    0  501                  0                  0         -3.2789586          3.2789586                  0 0 9
       23  2    1    2    0    0      -5.524918e-07      6.6767645e-07          649.49274          656.05067          92.529204 0 0
      -11  1    3    3    0    0         -20.607478          16.894762          56.598725          62.558107      0.00051099893 0 9
       11  1    3    3    0    0          20.607478         -16.894762          592.89402          593.49257      0.00051099893 0 9
#no interesting event
# just testing
<rwgt >
<wgt id="1001" >-2525.7</wgt>
<wgt id="1002" >-2774.6</wgt>
<wgt id="1003" >-2228.9</wgt>
<wgt id="1004" >-2213.4</wgt>
<wgt id="1005" >-2431.6</wgt>
<wgt id="1006" >-1953.2</wgt>
<wgt id="1007" >-2944.7</wgt>
<wgt id="1008" >-3234.9</wgt>
<wgt id="1009" >-2598.6</wgt>
</rgwt>
<weights ></weights>
<scales muf="40.849355" mur="40.849355" mups="40.849355"</scales>
</event>
</LesHouchesEvents>